ITEM: TIMESTEP
1000
ITEM: NUMBER OF ATOMS
996
ITEM: BOX BOUNDS ff ff ff
-3.9000000000000000e+01 3.9000000000000000e+01
-3.9000000000000000e+01 3.9000000000000000e+01
-3.9000000000000000e+01 3.9000000000000000e+01
ITEM: ATOMS id type x y z
122 2 -7.577 -4.70341 10.0366
138 2 -5.04879 -4.68717 7.85626
140 2 -7.5758 -4.68726 7.85714
143 2 -5.04941 -4.7028 10.0351
341 2 -5.04034 -4.71221 12.0641
343 2 -7.5682 -4.71285 12.0636
47 2 0.000846831 -4.68659 7.85643
89 2 2.52778 -4.68762 7.85693
90 2 2.52848 -4.70402 10.0367
104 2 -2.52399 -4.68781 7.85586
115 2 0.000990277 -4.70218 10.0349
156 2 -2.52423 -4.70349 10.0348
250 2 0.0107443 -4.71112 12.0644
292 2 2.53871 -4.71265 12.0636
307 2 -2.51484 -4.71318 12.0641
7 1 -5.04967 0.692886 8.2096
8 1 -6.31456 1.42346 7.68783
10 1 -5.04652 0.70615 9.75914
17 1 -5.03649 3.63393 10.2379
20 2 -9.76719 1.00751 7.9811
21 1 -8.83462 1.45869 7.67107
22 2 -9.78208 1.006 10.0049
23 1 -8.83601 1.45987 10.2709
30 1 -7.58368 3.65054 7.6652
31 1 -6.33591 2.89271 8.17911
32 1 -8.83936 2.91539 8.19556
33 1 -7.57427 3.6481 10.2632
40 1 -7.57872 0.72149 9.74945
41 1 -6.31103 1.45616 10.2544
44 1 -7.59104 0.70141 8.19934
51 1 -6.31148 2.91805 9.7313
63 2 -9.73864 3.34645 7.773
76 1 -8.83846 2.9166 9.74412
77 2 -9.77663 3.36469 10.0416
100 2 -9.719 -3.48816 9.94857
101 1 -8.84048 -2.93483 10.2706
106 1 -7.57773 -3.66078 8.19834
107 1 -8.84154 -2.9328 7.67695
108 1 -6.31425 -2.92532 7.68776
109 1 -7.57601 -3.66162 9.74739
111 1 -6.31322 -2.92946 10.2679
117 1 -5.07328 -0.76933 7.68756
118 1 -6.34181 -1.4718 8.21592
119 1 -5.05235 -0.754557 10.2839
123 1 -5.04956 -3.65979 9.74744
133 1 -5.05019 -3.66036 8.19841
135 1 -8.88882 -1.47242 8.18805
136 1 -8.84672 -1.48749 9.7359
145 1 -6.33043 -1.46395 9.76675
150 1 -7.60638 -0.758058 7.68215
151 1 -7.60224 -0.739205 10.27
165 2 -9.76491 -0.994825 7.77499
166 2 -9.7596 -3.47839 7.87877
167 2 -9.77112 -1.01613 10.042
170 1 -5.07542 3.61696 7.64781
174 2 -6.25977 1.37411 6.60601
177 2 -5.06359 3.57354 6.56434
179 2 -8.83767 1.45938 6.58952
180 2 -7.56574 -0.75284 6.59762
182 2 -7.68741 3.64636 6.58556
189 2 -5.03808 -0.718499 6.60447
197 2 -8.83536 -2.91868 6.59531
198 2 -6.31111 -2.92305 6.60661
210 1 -5.03131 0.724095 12.3261
211 1 -6.29844 1.46141 11.8092
223 2 -9.7769 1.00646 12.1005
224 1 -8.83505 1.45721 11.8187
233 1 -7.56657 3.64463 11.8139
234 1 -6.29049 2.92329 12.3201
235 1 -8.83479 2.91767 12.3325
247 1 -7.56086 0.728294 12.3202
266 2 -9.77939 3.36833 12.0579
309 1 -7.57102 -3.66462 12.3311
310 1 -8.8402 -2.93897 11.8192
311 1 -6.3086 -2.93057 11.8163
320 1 -5.03017 -0.742984 11.8321
321 1 -6.30013 -1.4752 12.3423
336 1 -5.0444 -3.66291 12.3306
338 1 -8.82615 -1.47271 12.3261
353 1 -7.55654 -0.739117 11.8168
368 2 -9.77219 -1.01376 12.0589
369 2 -9.75066 -3.45306 12.0955
373 1 -5.03669 3.6613 11.7865
1 1 0.00125681 0.725445 8.24132
2 1 -1.24973 1.44858 7.68398
3 1 1.22983 1.47449 7.67757
4 1 0.0271918 0.739155 9.78738
5 1 -1.24614 1.466 10.2862
6 1 1.30452 1.47263 10.2729
9 1 -3.79776 1.42295 7.67804
15 1 -3.81116 2.88954 8.17361
16 1 -3.77819 2.88772 9.72125
18 1 -2.53336 3.64481 10.2431
19 1 -3.78118 1.43753 10.2723
36 1 3.78115 -1.47389 8.18876
37 1 3.79844 -1.47467 9.73913
38 1 2.54964 -0.71853 10.2655
42 1 3.79388 -2.93257 7.67626
43 1 3.79602 -2.93481 10.2691
48 1 0.00292876 -3.66041 8.19893
64 1 1.26438 -1.46825 8.21704
65 1 1.28469 -1.4605 9.76991
66 1 0.0235007 -0.727553 10.2939
67 1 1.26627 -2.9248 7.68794
68 1 1.26851 -2.92923 10.2679
70 1 2.51813 -0.743182 7.66733
71 1 2.50434 0.729293 8.16302
72 1 2.54751 0.729951 9.71886
78 1 -2.52777 -0.749012 7.69246
79 1 -1.26162 -1.46597 8.21358
80 1 -3.79502 -1.46798 8.21521
81 1 -2.52137 0.71703 8.19431
82 1 -2.50267 -0.720141 10.2658
83 1 -2.50457 0.739762 9.74357
87 1 2.53021 -3.66084 8.19787
88 1 2.53106 -3.66204 9.74726
92 1 -2.52382 -3.6611 8.19807
93 1 -3.78682 -2.92541 7.68625
94 1 -1.26028 -2.92583 7.68636
95 1 -2.522 -3.66077 9.74677
96 1 -3.78519 -2.92956 10.2678
97 1 -1.25838 -2.93002 10.2678
98 1 -1.2807 2.91545 8.18833
99 1 -1.26271 2.9163 9.73951
105 1 -1.23459 -1.46131 9.76364
112 1 0.00137096 -0.72845 7.70556
116 1 0.00560422 -3.65973 9.74712
120 1 3.76047 2.94643 8.11742
121 1 3.78803 2.94823 9.67141
134 1 2.5311 3.6696 10.2207
139 1 3.7984 1.49824 10.2173
141 1 -3.76985 -1.45902 9.76552
142 1 1.26669 2.92141 9.72489
148 1 3.70286 1.50423 7.55832
153 1 -0.0236358 3.65516 7.6591
154 1 1.24338 2.93721 8.17808
157 1 0.00475364 3.63755 10.2621
159 1 2.49045 3.67234 7.61216
164 1 -2.54974 3.61508 7.63905
171 2 -1.25518 1.41827 6.59966
172 2 1.25939 1.45236 6.5953
175 2 -3.79105 1.40273 6.59668
178 2 -2.54848 3.53977 6.56135
183 2 2.4953 -0.737599 6.58347
185 2 3.78738 -2.91884 6.59473
190 2 -2.54322 -0.732488 6.60777
191 2 0.0713821 -0.687631 6.62325
192 2 1.26313 -2.92304 6.60651
194 2 0.0118125 3.65976 6.57873
195 2 -3.78632 -2.92348 6.60519
196 2 -1.26166 -2.9235 6.60502
202 2 2.48325 3.67234 6.52703
203 2 3.55536 1.58901 6.49138
204 1 0.0252223 0.747171 12.3515
205 1 -1.23546 1.4859 11.8333
206 1 1.29542 1.46403 11.8223
212 1 -3.76931 1.4613 11.8199
218 1 -3.77084 2.92963 12.31
239 1 3.78941 -1.47192 12.338
245 1 3.8072 -2.93794 11.8176
251 1 0.011393 -3.66277 12.3313
267 1 1.2919 -1.4698 12.3387
270 1 1.27443 -2.92996 11.8166
273 1 2.54339 -0.715674 11.8129
274 1 2.56818 0.741089 12.3435
281 1 -2.49145 -0.737533 11.8163
282 1 -1.23858 -1.47004 12.3444
283 1 -3.75671 -1.47329 12.3357
284 1 -2.50066 0.730757 12.325
290 1 2.53821 -3.66387 12.3303
295 1 -2.51675 -3.66399 12.3307
296 1 -3.78019 -2.93105 11.8165
297 1 -1.25246 -2.93171 11.8167
301 1 -1.24592 2.95997 12.3376
315 1 0.0258611 -0.719342 11.8471
323 1 3.77379 2.97217 12.3318
351 1 3.77135 1.52896 11.7649
356 1 0.0295294 3.67338 11.8165
357 1 1.28965 2.93184 12.3225
362 1 2.52292 3.69754 11.7737
367 1 -2.51015 3.66867 11.7914
39 2 4.74231 -0.979371 9.95659
46 2 4.70052 -1.07888 7.77931
53 2 4.69867 -3.44496 7.9745
54 2 4.70994 -3.45194 10.0091
147 2 4.67244 1.03675 7.66367
149 2 4.76752 1.11312 9.91349
249 2 4.72951 -1.00725 12.0835
256 2 4.71809 -3.45183 12.0925
350 2 4.69487 1.05603 12.0841
637 2 10.0693 4.21958 7.70036
638 2 10.1084 4.17134 9.84276
639 2 12.5669 4.20544 9.82878
641 2 12.5553 4.25243 7.62614
642 2 7.66373 4.11923 9.78317
643 2 7.62566 4.23148 7.61291
697 2 10.1808 4.18645 12.0205
700 2 12.6085 4.20852 12.0246
702 2 7.69294 4.20725 11.9633
990 1 5.03017 3.69236 11.7765
991 2 5.89713 3.14171 12.0847
992 1 5.03182 3.68565 10.2266
993 2 5.89031 3.10749 9.94122
994 1 5.01391 3.65962 7.55874
995 2 5.90876 3.07385 7.73511
996 2 4.9474 3.74638 6.48335
640 2 15.0687 4.18792 9.79371
644 2 15.0842 4.23802 7.65621
696 2 15.083 4.21534 11.9598
837 2 17.6127 4.28843 7.67028
838 2 17.6772 4.20685 9.8099
842 2 20.1582 4.19213 9.86858
843 2 20.091 4.2086 7.7216
899 2 17.6243 4.22155 12.0108
908 2 20.1833 4.1972 12.0356
835 2 22.7333 4.16292 7.7646
836 2 22.8292 4.14025 9.92028
839 2 25.4042 4.15191 9.88135
840 2 27.8379 4.18776 9.88016
841 2 25.2943 4.14767 7.77806
844 2 27.9 4.18831 7.72015
902 2 27.8166 4.22377 12.0503
903 2 22.7063 4.18948 12.1051
906 2 25.2804 4.18582 12.0511
24 1 -7.57806 5.10325 8.19328
25 1 -8.83576 5.84933 7.67625
26 1 -6.3124 5.81747 7.65446
27 1 -7.59197 5.10316 9.74062
28 1 -8.83583 5.85336 10.2715
29 1 -6.32397 5.8401 10.2499
61 2 -9.76383 5.38628 7.98231
62 2 -9.77574 5.38712 10.0066
91 1 -5.04229 8.01255 10.1917
124 1 -5.04576 7.95187 7.5484
125 1 -6.31661 7.28846 8.15154
126 2 -5.02944 9.03339 7.59441
127 1 -7.58333 7.97984 7.59108
128 1 -8.84372 7.30758 8.19708
129 2 -7.58344 9.04672 7.77686
130 1 -7.57193 8.03725 10.2496
131 2 -7.59793 9.0845 9.98148
132 2 -5.04785 9.0315 9.83539
144 1 -6.32479 7.2916 9.70112
152 2 -9.77444 7.81207 7.95787
162 1 -8.84528 7.31105 9.74616
163 2 -9.73205 7.8738 10.0119
168 1 -5.06241 5.07002 8.18906
169 1 -5.0623 5.10054 9.73739
173 2 -8.83762 5.83638 6.59467
181 2 -6.31851 5.83839 6.57295
199 2 -5.07902 7.81663 6.47562
201 2 -7.62774 7.99896 6.50937
227 1 -7.57048 5.11167 12.3114
228 1 -8.83439 5.85209 11.8195
229 1 -6.30635 5.8534 11.8039
264 2 -9.77036 5.38826 12.1002
327 1 -5.04274 8.00212 11.7391
328 1 -6.29491 7.30714 12.3319
329 2 -5.0329 9.03863 12.0258
330 1 -7.56339 8.00762 11.7992
331 1 -8.84148 7.31323 12.3324
332 2 -7.58413 9.06369 12.0407
355 2 -9.76252 7.8249 12.083
371 1 -5.03672 5.12059 12.3096
11 1 3.7965 7.25797 9.66485
12 1 2.5265 7.96763 10.194
13 1 3.78909 5.82866 7.60711
14 1 3.77958 7.29216 8.11155
34 1 1.23154 7.29797 8.11475
35 1 1.25404 7.27266 9.65978
45 1 -0.00297849 7.99798 10.2064
49 1 1.23092 5.84587 7.58922
50 1 1.26411 5.82719 10.2261
52 2 2.55443 9.01511 9.91076
55 1 -2.54167 7.96559 7.56591
56 1 -1.27727 7.27992 8.14328
57 1 -3.7931 7.25469 8.13146
58 2 -2.54232 9.03735 7.71658
59 1 -2.52442 8.01474 10.2129
60 2 -2.49696 9.048 9.89524
69 1 -1.27077 7.26841 9.69561
73 1 3.80624 5.81563 10.2413
74 1 -1.28652 5.81889 7.62246
75 1 -1.25614 5.81839 10.2448
84 1 -0.0381559 8.01343 7.58148
85 2 -0.0269204 9.09016 7.68571
86 2 -0.0069929 9.04513 9.92193
102 1 2.50758 7.98502 7.55731
103 2 2.55074 9.05797 7.70645
110 1 -3.78126 7.27398 9.68239
113 1 -3.80054 5.78285 7.63891
114 1 -3.79089 5.82673 10.2452
137 1 0.00102873 5.08477 9.70856
146 1 2.53337 5.11931 9.67457
155 1 -0.016955 5.11956 8.15786
158 1 2.50296 5.13581 8.12761
160 1 -2.52821 5.07146 8.16726
161 1 -2.52546 5.10644 9.71815
176 2 3.74099 5.84713 6.52813
184 2 1.22836 5.81614 6.50385
186 2 -0.052484 7.90968 6.49883
187 2 2.53106 7.91366 6.47609
188 2 -2.59484 7.92937 6.48513
193 2 -1.32906 5.82686 6.54197
200 2 -3.7914 5.7781 6.55187
216 1 3.80883 5.83799 11.7894
217 1 3.80207 7.29969 12.3053
237 1 1.26104 7.31564 12.3166
252 1 1.27554 5.85697 11.7793
258 1 -2.50926 8.0252 11.7619
259 1 -1.25249 7.31971 12.3318
260 1 -3.77576 7.31449 12.3099
261 2 -2.58576 9.05714 12.0774
277 1 -1.25144 5.85929 11.7994
287 1 0.00406207 8.02172 11.7532
288 2 -0.043032 9.06739 12.0351
305 1 2.53216 7.99471 11.7422
306 2 2.50834 9.05563 11.9611
316 1 -3.77532 5.85409 11.7964
358 1 0.0151544 5.13918 12.33
361 1 2.5336 5.14203 12.3351
363 1 -2.51378 5.12673 12.3182
581 1 5.06052 5.1102 8.11488
582 1 6.27742 5.86965 7.53657
583 1 5.07207 5.13217 9.66551
584 1 6.32442 5.86143 10.2004
587 1 12.6188 8.11025 10.1751
591 1 10.0725 8.10186 7.49994
592 1 11.349 7.43881 8.08141
593 1 8.82631 7.41289 8.1032
594 2 10.0524 9.17538 7.62482
595 1 10.0848 8.0693 10.2006
596 2 10.0536 9.09278 9.85391
597 1 11.3556 7.39009 9.63315
599 1 11.3427 6.00192 7.49997
600 1 11.3379 5.93899 10.1735
601 1 12.6104 8.11507 7.49019
602 2 12.628 9.18986 7.60827
603 2 12.6532 9.15382 9.88613
604 1 7.54779 8.04425 10.1963
607 1 8.82233 7.35614 9.65241
608 1 8.83758 5.97604 7.52822
609 1 8.81998 5.89553 10.1877
610 1 7.54265 8.02869 7.49039
611 1 6.29865 7.31767 8.07676
612 2 7.45696 9.10197 7.62753
613 1 5.02238 8.01115 7.52426
614 2 5.01385 9.08381 7.63363
615 1 5.04961 8.01115 10.183
616 2 5.08661 9.04982 9.87097
617 2 7.56798 9.06766 9.85149
618 1 12.5943 5.25595 9.57274
619 1 6.30733 7.30699 9.62723
621 1 12.5992 5.25933 8.02123
623 1 10.1044 5.2436 8.04437
624 1 10.0892 5.22649 9.59684
625 1 7.58802 5.21998 8.05024
626 1 7.576 5.17842 9.59962
628 2 6.25898 5.88168 6.45226
630 2 12.6178 7.95675 6.42006
632 2 10.0594 7.95827 6.42834
633 2 11.3125 5.88749 6.42418
634 2 7.54798 7.98315 6.41232
635 2 8.88121 5.96465 6.44873
636 2 5.00349 7.97536 6.44558
649 1 5.08189 5.13814 12.3405
650 1 6.31607 5.87665 11.7541
659 1 10.0773 8.07741 11.7496
660 1 11.3457 7.38896 12.3125
661 1 8.8259 7.36793 12.321
662 2 10.1013 9.12544 12.0338
667 1 11.344 5.95631 11.7244
669 1 12.5958 8.08886 11.7258
670 2 12.5366 9.13093 12.0092
676 1 8.84251 5.93232 11.7337
678 1 7.55694 8.04503 11.7444
679 1 6.3197 7.31103 12.3256
680 2 7.59983 9.10233 11.9606
681 1 5.06301 8.0019 11.7332
682 2 5.08543 9.05756 11.9751
689 1 12.6014 5.25776 12.3008
691 1 10.1039 5.22808 12.2989
693 1 7.59936 5.21713 12.3241
577 1 16.4058 7.39361 9.61156
578 1 15.1452 8.10021 10.1726
579 1 16.3797 6.00362 7.50155
580 1 16.3947 7.44423 8.06376
585 1 13.8767 7.42379 8.07449
586 1 13.8771 7.39713 9.62259
588 1 13.8638 5.98453 7.50651
589 1 13.8516 5.94611 10.1643
590 2 15.1455 9.12918 9.8315
598 1 16.3677 5.94105 10.1601
605 1 15.1303 8.09056 7.45182
606 2 15.1269 9.16549 7.56857
620 1 15.1094 5.24742 9.57755
622 1 15.1259 5.25364 8.02147
627 2 16.3849 6.00721 6.41479
629 2 13.8455 5.98766 6.42296
631 2 15.1056 7.96122 6.38003
647 1 16.3645 5.94964 11.7167
648 1 16.3766 7.38741 12.2989
653 1 13.8599 7.39367 12.2999
656 1 13.8528 5.95864 11.7165
673 1 15.1181 8.09424 11.7245
674 2 15.0908 9.12924 12.0317
690 1 15.1026 5.24857 12.287
777 1 17.6484 5.30411 8.0464
778 1 18.9285 6.00635 7.52104
779 1 17.6437 5.26234 9.59589
780 1 18.9068 5.93102 10.1928
789 1 21.4749 7.33743 8.09599
800 1 20.213 8.0509 10.1741
803 1 21.477 7.32395 9.64641
804 1 21.4758 5.88615 7.55007
805 1 21.4544 5.87718 10.2092
806 1 20.2232 8.02827 7.49944
807 1 18.9089 7.44598 8.07855
808 2 20.253 9.09996 7.64433
809 1 17.6542 8.12458 7.47175
810 2 17.6643 9.18403 7.67111
811 1 17.673 8.08222 10.1852
812 2 17.5827 9.10968 9.86271
813 2 20.2301 9.08112 9.85004
817 1 18.9308 7.3708 9.62859
823 1 20.1642 5.23644 8.05848
824 1 20.1696 5.24248 9.6113
826 2 18.9228 6.06345 6.43757
832 2 20.2957 7.88414 6.43034
833 2 21.4937 5.8097 6.4678
834 2 17.5636 8.0462 6.39603
851 1 17.6161 5.25645 12.3098
852 1 18.8882 5.935 11.7435
863 1 21.438 7.3532 12.3258
878 1 21.4476 5.91249 11.7607
880 1 20.1845 8.03311 11.726
881 1 18.9128 7.37478 12.317
882 2 20.1603 9.06847 12.0304
883 1 17.6539 8.06767 11.7377
884 2 17.6242 9.11119 12.0278
897 1 20.1585 5.2489 12.3107
771 1 29.0018 7.40095 9.60321
772 1 27.7645 8.09387 10.2325
773 2 29.8772 7.97582 9.86605
774 1 29.0639 5.98711 7.43469
775 1 29.0307 7.40875 8.05404
776 2 29.9274 7.94458 7.77511
781 1 26.5456 7.34949 8.13956
782 1 26.5176 7.35309 9.68518
783 1 25.2562 8.0678 10.2351
784 1 26.5733 5.90134 7.59505
785 1 26.5518 5.8987 10.2211
786 2 27.7564 9.12735 9.92175
787 1 22.7486 8.02053 7.53276
788 1 23.9979 7.32578 8.12846
790 2 22.8084 9.09138 7.6739
791 1 22.7412 8.0153 10.2139
792 2 22.7165 9.06129 9.94549
793 1 24.0158 7.31871 9.67941
794 1 29.0576 5.96937 10.1907
795 1 24.015 5.87282 7.58811
796 1 24.0117 5.87269 10.2324
797 1 25.2673 7.99907 7.53532
798 2 25.318 9.06409 7.72921
799 2 25.2391 9.10127 9.91395
801 1 27.7532 8.09077 7.51086
802 2 27.6769 9.15261 7.67183
814 1 25.287 5.20531 9.6605
815 2 30.0296 5.53921 7.63154
816 2 29.9736 5.47765 9.88605
818 1 27.8162 5.23647 9.62156
819 1 25.3009 5.18191 8.11251
820 1 27.879 5.21828 8.07085
821 1 22.7338 5.18641 8.12148
822 1 22.7374 5.18689 9.67261
825 2 29.0634 6.01119 6.35251
827 2 26.5892 5.90278 6.5117
828 2 25.2494 7.90343 6.45786
829 2 27.768 8.00895 6.43605
830 2 22.7534 7.89493 6.45764
831 2 23.9976 5.85977 6.5081
848 1 29.0445 5.97411 11.7359
849 1 29.0318 7.40179 12.3404
850 2 29.9176 7.93935 12.0328
855 1 26.5331 7.36191 12.3582
858 1 26.528 5.92048 11.7728
861 1 22.7221 8.00859 11.7617
862 1 23.9959 7.34581 12.3538
864 2 22.7514 9.0542 12.0404
869 1 23.9998 5.90547 11.7846
871 1 25.259 8.03502 11.7854
872 2 25.2285 9.08265 12.0693
875 1 27.7673 8.10021 11.7856
876 2 27.7722 9.16866 11.9786
889 2 29.9401 5.4355 12.0027
893 1 25.2709 5.22441 12.3542
894 1 27.8088 5.26403 12.3442
895 1 22.7205 5.24165 12.3431
325 2 -7.56866 -4.71253 14.1472
346 2 -5.04075 -4.71208 14.1467
514 2 -7.55775 -4.68748 18.3539
531 2 -5.03099 -4.703 16.1757
534 2 -7.55849 -4.70404 16.1741
538 2 -5.0308 -4.68708 18.3546
293 2 2.53819 -4.71287 14.1472
318 2 0.0103231 -4.71109 14.1464
359 2 -2.51524 -4.71313 14.1467
422 2 0.0194241 -4.70206 16.176
474 2 2.54703 -4.70339 16.1743
475 2 2.54576 -4.68718 18.3537
490 2 -2.50582 -4.70352 16.1761
505 2 0.0188113 -4.68635 18.3544
553 2 -2.50603 -4.68767 18.355
213 1 -5.02362 0.744324 13.8725
220 1 -5.04894 3.6685 14.3893
225 2 -9.77455 1.0072 14.1134
226 1 -8.83173 1.45706 14.3934
236 1 -7.57627 3.67133 14.3753
243 1 -7.57006 0.728957 13.8694
244 1 -6.30042 1.47084 14.3733
254 1 -6.31105 2.93554 13.8673
279 1 -8.83267 2.91808 13.8809
280 2 -9.77793 3.36797 14.154
303 2 -9.74846 -3.45202 14.1182
304 1 -8.83708 -2.93887 14.393
312 1 -7.56815 -3.6642 13.88
314 1 -6.30522 -2.93046 14.3942
322 1 -5.03001 -0.720928 14.3701
326 1 -5.04107 -3.66283 13.88
339 1 -8.83448 -1.48046 13.8732
348 1 -6.30823 -1.4668 13.8899
354 1 -7.5823 -0.730926 14.3923
370 2 -9.77083 -1.01406 14.153
380 1 -5.03085 0.725381 16.4361
381 1 -6.29401 1.45466 15.9213
383 1 -5.05871 0.711014 17.9834
390 1 -5.06726 3.63848 18.5302
393 2 -9.76697 1.00501 16.2086
394 1 -8.82176 1.45975 15.9411
395 2 -9.74948 1.00744 18.2304
396 1 -8.81684 1.45842 18.5405
403 1 -7.56482 3.64051 15.9245
404 1 -6.30656 2.91585 16.4502
405 1 -8.82321 2.91629 16.4682
406 1 -7.55905 3.65231 18.5216
407 2 -7.56226 3.66654 19.6053
414 1 -7.58274 0.696549 18.0044
415 1 -6.32104 1.42599 18.5198
419 1 -7.55659 0.729637 16.4544
426 1 -6.31783 2.88956 18.0013
428 2 -6.29258 1.45422 19.5991
440 2 -9.76076 3.36532 16.1698
458 1 -8.8217 2.9154 18.0168
459 2 -9.7417 3.36206 18.3694
470 2 -8.79012 1.48817 19.6259
486 2 -9.72886 -3.4451 18.2363
487 1 -8.82371 -2.9331 18.5345
494 1 -7.56116 -3.66235 16.4637
495 1 -8.82597 -2.93532 15.9417
496 1 -6.29899 -2.92963 15.9426
497 1 -7.56004 -3.66095 18.0127
499 1 -6.29657 -2.92535 18.5231
507 1 -5.04001 -0.735588 15.9256
508 1 -6.3015 -1.46445 16.4476
509 1 -5.0494 -0.735378 18.5336
510 2 -5.04492 -0.673742 19.6125
515 1 -5.03265 -3.66036 18.0122
526 1 -5.03525 -3.65998 16.4632
528 1 -8.81984 -1.47458 16.4612
529 1 -8.82295 -1.47547 18.0089
540 1 -6.30917 -1.47143 17.9955
546 1 -7.56498 -0.733467 15.9404
547 1 -7.56169 -0.756409 18.5514
548 2 -7.52839 -0.736973 19.632
557 2 -6.24152 -2.91741 19.6079
567 2 -9.75508 -1.01559 16.1695
568 2 -9.74018 -3.45206 16.2019
570 2 -9.73677 -1.01737 18.3665
571 2 -8.76899 -3.03069 19.6069
574 1 -5.04622 3.65887 15.9372
575 2 -5.06844 3.62127 19.6152
207 1 0.0259361 0.749342 13.9
208 1 -1.24083 1.48614 14.3981
209 1 1.28623 1.49817 14.3948
219 1 -3.78543 2.94051 13.8621
221 1 -2.52788 3.67503 14.4024
222 1 -3.76093 1.48198 14.3768
240 1 3.7883 -1.47346 13.8893
241 1 2.54039 -0.712937 14.4161
246 1 3.81032 -2.93813 14.3914
268 1 1.28886 -1.4641 13.8889
269 1 0.0280302 -0.718674 14.3995
271 1 1.27782 -2.93006 14.3941
275 1 2.54667 0.744211 13.8942
285 1 -2.5005 -0.724482 14.3965
286 1 -2.49534 0.737777 13.8804
291 1 2.54097 -3.66423 13.8798
298 1 -2.51327 -3.66392 13.8798
299 1 -3.77684 -2.93098 14.394
300 1 -1.24906 -2.93165 14.394
302 1 -1.26107 2.95235 13.8864
308 1 -1.23258 -1.46205 13.8956
319 1 0.0147513 -3.66271 13.8793
324 1 3.78232 2.98063 13.8861
337 1 2.52226 3.70075 14.4346
342 1 3.75808 1.53768 14.4444
344 1 -3.75929 -1.46458 13.8821
345 1 1.27625 2.9627 13.8761
360 1 0.00558856 3.67711 14.4057
374 1 0.0133729 0.736416 16.4415
375 1 -1.25037 1.489 15.9527
376 1 1.27292 1.48958 15.9438
377 1 -0.0220291 0.732538 17.9923
378 1 -1.28726 1.45843 18.5134
379 1 1.23306 1.45644 18.5385
382 1 -3.78056 1.48266 15.9239
388 1 -3.77958 2.93552 16.4693
389 1 -3.79509 2.91858 18.0199
391 1 -2.54024 3.66023 18.5462
392 1 -3.8189 1.45831 18.528
410 1 3.78907 -1.47738 16.477
411 1 3.73989 -1.46859 18.0277
412 1 2.50354 -0.70587 18.5674
416 1 3.81053 -2.93429 15.9399
417 1 3.81145 -2.9322 18.5337
418 2 3.67796 -2.89412 19.6059
423 1 0.0198368 -3.6596 16.4635
442 1 1.29757 -1.46867 16.4671
443 1 1.26848 -1.45918 18.0155
444 1 -0.0081227 -0.728758 18.4995
445 1 1.28275 -2.92902 15.9427
446 1 1.28386 -2.9247 18.5225
447 2 1.22817 -2.91069 19.6073
449 1 2.55121 -0.705945 15.9648
450 1 2.51613 0.749711 16.4873
451 1 2.51267 0.748128 18.0344
452 2 2.54012 -0.685719 19.6514
460 1 -2.50462 -0.720613 15.948
461 1 -1.23884 -1.4651 16.4465
462 1 -3.77245 -1.46518 16.4384
463 1 -2.52182 0.747662 16.4442
464 1 -2.5347 -0.730748 18.4946
465 1 -2.55369 0.734971 17.9905
466 2 -2.49368 -0.721364 19.5822
471 1 2.546 -3.66131 16.463
472 1 2.54775 -3.66053 18.0123
478 1 -2.50793 -3.66079 16.4638
479 1 -3.77109 -2.92959 15.9428
480 1 -1.24431 -2.92995 15.9429
481 1 -2.50633 -3.66099 18.0125
482 1 -3.76934 -2.92537 18.5244
483 1 -1.24277 -2.92571 18.5242
484 1 -1.24962 2.9445 16.4848
485 1 -1.27361 2.93208 18.0332
491 1 -1.27023 -1.46334 17.9922
493 2 -1.21598 -2.96376 19.6013
500 1 0.0380395 -0.731953 15.9494
501 2 -0.102466 -0.772938 19.5771
506 1 0.0204528 -3.6602 18.0116
511 1 3.75436 2.95771 16.5735
512 1 3.7424 2.96491 18.1221
513 2 1.18781 1.46821 19.6245
527 1 2.468 3.69743 18.6105
532 2 3.60606 1.62905 19.7156
533 1 3.71875 1.51057 18.6452
535 1 -3.79797 -1.4695 17.988
536 2 -3.75831 -3.02376 19.5977
537 1 1.24414 2.92747 18.0585
544 1 3.76693 1.52271 15.9891
550 1 0.0150563 3.66728 15.9537
551 1 1.26369 2.92895 16.5086
554 1 -0.0220604 3.67057 18.5732
555 2 -0.0609436 3.6479 19.6561
558 1 2.51071 3.68542 15.9908
563 2 2.49277 3.70301 19.6927
564 1 -2.51713 3.66693 15.9571
565 2 -2.47663 3.72397 19.6267
569 2 -1.27685 1.41274 19.5962
576 2 -3.82141 1.40736 19.6139
242 2 4.72826 -1.01077 14.1545
257 2 4.72029 -3.45287 14.1155
352 2 4.70563 1.07048 14.2018
413 2 4.67933 -1.06392 18.3778
421 2 4.74789 -1.01229 16.2993
429 2 4.67169 -3.49648 16.2708
430 2 4.7374 -3.48031 18.4112
543 2 4.70687 1.10143 16.3306
545 2 4.65294 0.982886 18.4973
695 2 12.637 4.18273 14.1343
699 2 9.99876 4.20806 14.1422
701 2 7.63236 4.17984 14.1842
763 2 10.1243 4.20006 18.4646
764 2 12.6564 4.15336 18.3909
766 2 12.6453 4.16007 16.3207
767 2 7.65892 4.23571 18.6021
769 2 10.1422 4.20549 16.3378
770 2 7.65677 4.147 16.3706
983 1 4.97787 3.7094 18.6902
984 2 4.87765 3.76401 19.7645
985 2 5.87965 3.14571 18.5205
986 1 5.00526 3.68761 16.0401
987 2 5.90049 3.12577 16.2831
988 1 5.01788 3.70602 14.4878
989 2 5.84038 3.078 14.1831
698 2 15.1264 4.21675 14.0684
765 2 15.201 4.17174 18.4719
768 2 15.0623 4.15766 16.3007
900 2 17.68 4.18513 14.1384
907 2 20.1756 4.17703 14.1414
974 2 17.6285 4.18311 16.3392
975 2 17.578 4.185 18.4473
979 2 20.1283 4.16234 18.4424
982 2 20.124 4.12756 16.2827
901 2 25.2042 4.17204 14.1389
904 2 27.8191 4.17961 14.158
905 2 22.7288 4.1976 14.1838
973 2 22.6774 4.09069 18.4014
976 2 25.3263 4.14075 18.4389
977 2 27.8196 4.15838 18.4529
978 2 25.2745 4.13527 16.3287
980 2 27.8323 4.16028 16.3034
981 2 22.755 4.12195 16.3444
230 1 -7.57121 5.13238 13.8583
231 1 -8.83106 5.85185 14.3927
232 1 -6.30599 5.85793 14.378
265 2 -9.76804 5.38899 14.1137
294 1 -5.02561 8.03308 14.4238
333 1 -7.57091 8.02847 14.412
334 2 -7.58024 9.082 14.1745
335 2 -5.04431 9.08651 14.1666
347 1 -6.29265 7.32761 13.8792
365 1 -8.83949 7.31346 13.8811
366 2 -9.72648 7.86842 14.1611
372 1 -5.04133 5.12539 13.8625
397 1 -7.56032 5.10226 16.4363
398 1 -8.82157 5.85344 15.9408
399 1 -6.30332 5.8625 15.9302
400 1 -7.5785 5.10503 17.9851
401 1 -8.81799 5.84916 18.5353
402 1 -6.31125 5.81675 18.5286
438 2 -9.76057 5.38618 16.2069
439 2 -9.74612 5.3862 18.2292
476 2 -4.98801 7.72885 19.7191
477 1 -5.02887 7.92059 18.6594
516 1 -5.02238 8.01704 15.9717
517 1 -6.29058 7.30606 16.4951
518 2 -4.9732 9.06406 16.2379
519 1 -7.55691 8.02766 15.9626
520 1 -8.82973 7.31104 16.4663
521 2 -7.59116 9.06997 16.2605
522 1 -7.56509 8.00578 18.5843
523 2 -7.63688 9.08451 18.4866
524 2 -7.53218 7.81315 19.6527
525 2 -4.97977 8.99044 18.5446
539 1 -6.3059 7.28975 18.0469
542 2 -6.34978 5.82665 19.6087
549 2 -9.77147 7.78251 16.2258
561 1 -8.82609 7.30766 18.0153
562 2 -9.69142 7.83731 18.4014
566 2 -8.83336 5.86462 19.6175
572 1 -5.04264 5.12062 16.4467
573 1 -5.05351 5.09125 17.9929
214 1 3.79137 7.29837 13.8554
215 1 2.52964 7.99934 14.423
238 1 1.26853 7.29317 13.8721
248 1 0.018574 8.01984 14.4285
253 1 1.27583 5.8441 14.4233
255 2 2.44895 9.03263 14.1233
262 1 -2.51156 8.02048 14.4274
263 2 -2.53452 9.08254 14.2124
272 1 -1.24779 7.3141 13.8796
276 1 3.81126 5.86614 14.4363
278 1 -1.25902 5.85933 14.4074
289 2 -0.0116318 9.07133 14.1764
313 1 -3.77369 7.32144 13.8635
317 1 -3.77795 5.86077 14.3811
340 1 0.00691582 5.13231 13.8767
349 1 2.54929 5.14979 13.8826
364 1 -2.51271 5.12754 13.8658
384 1 3.81917 7.31726 18.0825
385 1 2.53796 8.01643 18.5982
386 1 3.80495 5.8582 15.9851
387 1 3.80491 7.30709 16.5302
408 1 1.28429 7.30076 16.5089
409 1 1.26114 7.3284 18.0544
420 1 0.0079082 8.05745 18.587
424 1 1.28106 5.84613 15.9722
425 1 1.24123 5.87729 18.5975
427 2 2.53232 9.08026 18.4027
431 1 -2.49336 8.05005 15.9745
432 1 -1.23853 7.30324 16.4944
433 1 -3.74671 7.29778 16.4851
434 2 -2.53919 9.09038 16.2646
435 1 -2.51575 7.98641 18.5999
436 2 -2.49143 9.06512 18.4923
437 2 -2.55861 7.83738 19.669
441 2 1.22045 5.83159 19.6848
448 1 -1.23326 7.31507 18.0418
453 1 3.77961 5.85952 18.608
454 2 3.75438 5.88775 19.6907
455 1 -1.2291 5.85073 15.9544
456 1 -1.26397 5.85342 18.5559
457 2 -1.282 5.86915 19.6403
467 1 0.0270622 8.0349 15.9787
468 2 0.0270635 9.08857 16.2281
469 2 -0.0102376 9.12397 18.3769
473 2 -0.0518608 7.99751 19.6653
488 1 2.54945 8.01767 15.9733
489 2 2.51116 9.06749 16.2206
492 2 2.53423 7.98202 19.6769
498 1 -3.77057 7.27239 18.0312
502 1 -3.77369 5.84764 15.9334
503 1 -3.801 5.81348 18.5369
504 2 -3.73674 5.78378 19.6143
530 1 0.00200263 5.12173 18.0491
541 1 2.51012 5.15007 18.0798
552 1 0.0169125 5.11918 16.5023
556 1 2.54027 5.13878 16.5298
559 1 -2.50865 5.12984 16.47
560 1 -2.52053 5.11663 18.0193
651 1 5.08028 5.1388 13.8904
652 1 6.33201 5.88038 14.4303
655 1 12.6072 8.08776 14.4401
663 1 10.1066 8.05137 14.444
664 2 10.1045 9.10651 14.1871
665 1 11.3638 7.36979 13.8588
668 1 11.3739 5.92752 14.4312
671 2 12.6286 9.13568 14.1777
672 1 7.56755 8.06483 14.4345
675 1 8.83733 7.37242 13.8724
677 1 8.85594 5.93513 14.4558
683 1 5.04653 8.00103 14.4425
684 2 4.97316 9.03504 14.1388
685 2 7.52779 9.12254 14.1911
686 1 12.6206 5.22585 13.8444
687 1 6.31685 7.32937 13.8773
692 1 10.1038 5.24878 13.8511
694 1 7.6117 5.21464 13.876
707 1 5.06743 5.15279 16.5448
708 1 6.33536 5.83583 15.9866
709 1 5.05173 5.13924 18.0959
710 1 6.29276 5.89125 18.6391
713 1 12.6382 8.07121 18.6797
717 1 10.1111 8.10179 15.9902
718 1 11.3599 7.37659 16.5457
719 1 8.83906 7.38962 16.5225
720 2 10.1334 9.14743 16.2597
721 1 10.1197 8.05529 18.6918
722 2 10.0746 9.12299 18.5269
723 2 10.1121 7.95077 19.7686
725 1 11.3806 7.37601 18.0932
728 1 11.3743 5.93255 15.986
729 1 11.3807 5.94284 18.6814
730 2 11.3406 5.87142 19.7583
731 1 12.6241 8.08138 15.9922
732 2 12.6311 9.13839 16.2141
733 2 12.7097 9.1447 18.5505
734 2 12.5524 7.88886 19.7461
735 2 7.62742 7.98715 19.7178
736 1 7.5717 8.06917 18.6415
740 1 8.85053 7.40736 18.0749
741 1 8.85922 5.92926 16.006
742 1 8.8463 5.97005 18.6505
743 2 8.79004 5.96151 19.7345
744 1 7.54119 8.04598 15.984
745 1 6.31278 7.29082 16.5421
746 2 7.47219 9.07523 16.2999
747 1 5.06323 8.02327 15.9906
748 2 4.98623 9.07425 16.2483
749 1 5.05765 8.04145 18.668
750 2 5.03399 9.09687 18.4285
751 2 5.12648 7.9247 19.7463
752 2 7.56783 9.1411 18.5332
753 1 12.6146 5.20062 18.1159
754 1 6.3178 7.34049 18.0916
756 2 6.26021 5.87411 19.7234
757 1 12.6175 5.21722 16.5698
759 1 10.1241 5.25608 16.5928
760 1 10.1098 5.23183 18.1407
761 1 7.61594 5.20442 16.5895
762 1 7.59433 5.21018 18.1374
645 1 16.3872 7.37827 13.8496
646 1 15.1198 8.06386 14.424
654 1 13.8546 7.37527 13.8559
657 1 13.8595 5.94219 14.4427
658 2 15.2023 9.1166 14.1697
666 1 16.388 5.94252 14.4288
688 1 15.1212 5.27609 13.8365
703 1 16.3953 7.39108 18.0915
704 1 15.1307 8.05252 18.6913
705 1 16.3884 5.91039 15.9787
706 1 16.3826 7.34864 16.5426
711 1 13.8791 7.35382 16.5414
712 1 13.8787 7.35884 18.0906
714 1 13.8784 5.90352 15.9911
715 1 13.8776 5.91626 18.6538
716 2 15.0672 9.12506 18.5732
724 2 13.8436 5.89919 19.734
726 1 16.369 5.94706 18.6477
727 2 16.3691 5.93909 19.7314
737 1 15.1375 8.06374 15.9721
738 2 15.1245 9.09031 16.3164
739 2 15.1167 7.98107 19.7701
755 1 15.1305 5.18667 18.1083
758 1 15.1377 5.20493 16.5564
853 1 17.6436 5.2299 13.8565
854 1 18.9085 5.90769 14.4339
874 1 20.1771 8.01143 14.4579
877 1 21.4441 7.33004 13.8769
879 1 21.4394 5.90073 14.4571
885 1 17.6574 8.04925 14.4424
886 2 17.6662 9.09812 14.1874
887 2 20.2219 9.06455 14.2243
891 1 18.9089 7.35214 13.865
898 1 20.1779 5.22623 13.8617
915 1 17.6614 5.23482 16.5569
916 1 18.9331 5.912 15.984
917 1 17.6244 5.21612 18.1065
918 1 18.9033 5.90552 18.6429
927 1 21.4618 7.31109 16.5566
943 2 20.2444 7.84239 19.7664
944 1 20.2212 7.99076 18.6995
948 1 21.4895 7.32338 18.1014
949 1 21.4582 5.86604 16.0071
950 1 21.4494 5.87413 18.6292
951 2 21.4314 5.78562 19.7066
952 1 20.2015 8.02646 16.0092
953 1 18.9187 7.35357 16.5559
954 2 20.207 9.07219 16.297
955 1 17.6557 8.05715 15.9975
956 2 17.6466 9.11437 16.236
957 1 17.6748 8.03533 18.6977
958 2 17.7098 9.11596 18.6423
959 2 17.6951 7.79932 19.7491
960 2 20.2032 9.05646 18.5251
964 1 18.9372 7.3569 18.1068
966 2 18.9055 5.80981 19.7185
971 1 20.1746 5.17864 16.5479
972 1 20.1655 5.18839 18.0972
845 1 29.0424 7.38296 13.8944
846 1 27.7799 8.03619 14.5137
847 2 29.9199 7.94759 14.1743
856 1 26.5362 7.34776 13.9098
857 1 25.2613 8.00236 14.4975
859 1 26.5463 5.91353 14.4859
860 2 27.7751 9.06066 14.1574
865 1 22.713 7.99726 14.4599