ITEM: TIMESTEP
1000
ITEM: NUMBER OF ATOMS
996
ITEM: BOX BOUNDS ff ff ff
-3.9000000000000000e+01 3.9000000000000000e+01
-3.9000000000000000e+01 3.9000000000000000e+01
-3.9000000000000000e+01 3.9000000000000000e+01
ITEM: ATOMS id type x y z
122 2 -7.577 -4.70341 10.0366
138 2 -5.04879 -4.68717 7.85626
140 2 -7.5758 -4.68726 7.85714
143 2 -5.04941 -4.7028 10.0351
341 2 -5.04034 -4.71221 12.0641
343 2 -7.5682 -4.71285 12.0636
47 2 0.000846831 -4.68659 7.85643
89 2 2.52778 -4.68762 7.85693
90 2 2.52848 -4.70402 10.0367
104 2 -2.52399 -4.68781 7.85586
115 2 0.000990277 -4.70218 10.0349
156 2 -2.52423 -4.70349 10.0348
250 2 0.0107443 -4.71112 12.0644
292 2 2.53871 -4.71265 12.0636
307 2 -2.51484 -4.71318 12.0641
7 1 -5.04215 0.701187 8.22141
8 1 -6.27712 1.46742 7.67959
10 1 -5.05592 0.712177 9.77007
17 1 -5.04638 3.65634 10.2555
20 2 -9.68971 1.08377 7.74284
21 1 -8.71899 1.49057 7.503
22 2 -9.76364 1.04901 9.91287
23 1 -8.82098 1.49549 10.2123
30 1 -7.52216 3.70112 7.61372
31 1 -6.30405 2.93024 8.1809
32 1 -8.77332 2.92361 8.09164
33 1 -7.58011 3.67526 10.247
40 1 -7.56973 0.736136 9.70537
41 1 -6.31437 1.47645 10.2528
44 1 -7.54617 0.715808 8.15447
51 1 -6.31494 2.93971 9.73424
63 2 -9.68559 3.33487 7.68081
76 1 -8.79839 2.93143 9.63853
77 2 -9.783 3.31546 9.87041
100 2 -9.7364 -3.45963 9.94874
101 1 -8.84048 -2.93483 10.2706
106 1 -7.57773 -3.66078 8.19834
107 1 -8.84154 -2.9328 7.67695
108 1 -6.31425 -2.92532 7.68776
109 1 -7.57601 -3.66162 9.74739
111 1 -6.31322 -2.92946 10.2679
117 1 -5.0285 -0.753955 7.67818
118 1 -6.29902 -1.4632 8.20882
119 1 -5.04093 -0.750869 10.2913
123 1 -5.04956 -3.65979 9.74744
133 1 -5.05019 -3.66036 8.19841
135 1 -8.82695 -1.46591 8.18249
136 1 -8.82039 -1.48124 9.72912
145 1 -6.31276 -1.46538 9.75931
150 1 -7.55481 -0.750013 7.65608
151 1 -7.57972 -0.715245 10.2475
165 2 -9.72008 -1.00768 7.78639
166 2 -9.76364 -3.46803 7.88768
167 2 -9.79694 -1.08664 9.96566
170 1 -5.03961 3.6509 7.66133
174 2 -6.15967 1.40493 6.60361
177 2 -5.01841 3.60284 6.57851
179 2 -8.6334 1.50287 6.42431
180 2 -7.52452 -0.75538 6.57153
182 2 -7.55006 3.72872 6.52975
189 2 -4.98794 -0.713941 6.59448
197 2 -8.83536 -2.91868 6.59531
198 2 -6.31111 -2.92305 6.60661
210 1 -5.06928 0.734397 12.3249
211 1 -6.31938 1.48771 11.8012
223 2 -9.79035 1.11075 12.0193
224 1 -8.82156 1.51406 11.7592
233 1 -7.59654 3.68628 11.7967
234 1 -6.34659 2.94181 12.3354
235 1 -8.84322 2.94701 12.3454
247 1 -7.58968 0.750273 12.3212
266 2 -9.80148 3.36273 12.0647
309 1 -7.57102 -3.66462 12.3311
310 1 -8.8402 -2.93897 11.8192
311 1 -6.3086 -2.93057 11.8163
320 1 -5.04302 -0.740404 11.8426
321 1 -6.31281 -1.47333 12.3448
336 1 -5.0444 -3.66291 12.3306
338 1 -8.78776 -1.47336 12.319
353 1 -7.54526 -0.708995 11.7971
368 2 -9.74071 -1.05369 12.0296
369 2 -9.75066 -3.45306 12.0955
373 1 -5.08359 3.67028 11.8039
1 1 -0.00666948 0.722308 8.25199
2 1 -1.2603 1.44369 7.7015
3 1 1.22275 1.46451 7.67965
4 1 0.0152813 0.743901 9.79927
5 1 -1.25823 1.46266 10.3088
6 1 1.30244 1.46469 10.2821
9 1 -3.78194 1.42214 7.69275
15 1 -3.80571 2.88532 8.19454
16 1 -3.79705 2.89826 9.74157
18 1 -2.54457 3.64501 10.2679
19 1 -3.79365 1.44436 10.2864
36 1 3.77028 -1.4696 8.18134
37 1 3.79304 -1.48074 9.73139
38 1 2.54748 -0.718061 10.2613
42 1 3.79388 -2.93257 7.67626
43 1 3.79602 -2.93481 10.2691
48 1 0.00292876 -3.66041 8.19893
64 1 1.26144 -1.46971 8.2208
65 1 1.28151 -1.45718 9.77201
66 1 0.0264167 -0.724093 10.3029
67 1 1.26627 -2.9248 7.68794
68 1 1.26851 -2.92923 10.2679
70 1 2.50649 -0.741936 7.65802
71 1 2.49804 0.723788 8.16451
72 1 2.54705 0.731106 9.71652
78 1 -2.51274 -0.753051 7.68704
79 1 -1.25063 -1.46962 8.2208
80 1 -3.76983 -1.475 8.2254
81 1 -2.51724 0.700693 8.21578
82 1 -2.49575 -0.719711 10.281
83 1 -2.51779 0.740765 9.76381
87 1 2.53021 -3.66084 8.19787
88 1 2.53106 -3.66204 9.74726
92 1 -2.52382 -3.6611 8.19807
93 1 -3.78682 -2.92541 7.68625
94 1 -1.26028 -2.92583 7.68636
95 1 -2.522 -3.66077 9.74677
96 1 -3.78519 -2.92956 10.2678
97 1 -1.25838 -2.93002 10.2678
98 1 -1.29045 2.90347 8.21882
99 1 -1.27446 2.91102 9.76667
105 1 -1.23118 -1.45788 9.77173
112 1 0.00509434 -0.725665 7.70257
116 1 0.00560422 -3.65973 9.74712
120 1 3.75076 2.9404 8.12411
121 1 3.79418 2.94059 9.67552
134 1 2.53804 3.65212 10.2343
139 1 3.80614 1.4879 10.2119
141 1 -3.75811 -1.4575 9.77429
142 1 1.26128 2.91847 9.74617
148 1 3.6786 1.50724 7.53921
153 1 -0.0333008 3.63569 7.68145
154 1 1.23626 2.92104 8.20024
157 1 -0.00388674 3.62405 10.2898
159 1 2.47623 3.65286 7.61196
164 1 -2.54977 3.61496 7.66152
171 2 -1.29146 1.41176 6.61799
172 2 1.22227 1.445 6.59685
175 2 -3.75169 1.39129 6.6119
178 2 -2.56412 3.52435 6.58504
183 2 2.4498 -0.73334 6.57556
185 2 3.78738 -2.91884 6.59473
190 2 -2.54227 -0.743222 6.60254
191 2 0.0515569 -0.689107 6.61874
192 2 1.26313 -2.92304 6.60651
194 2 -0.018036 3.62568 6.60055
195 2 -3.78632 -2.92348 6.60519
196 2 -1.26166 -2.9235 6.60502
202 2 2.44046 3.65021 6.52744
203 2 3.51413 1.60721 6.47611
204 1 0.0274644 0.746171 12.3554
205 1 -1.24313 1.47594 11.853
206 1 1.30162 1.45814 11.8296
212 1 -3.7924 1.46745 11.8368
218 1 -3.81169 2.94165 12.3201
239 1 3.78364 -1.4772 12.3369
245 1 3.8072 -2.93794 11.8176
251 1 0.011393 -3.66277 12.3313
267 1 1.29954 -1.46967 12.3366
270 1 1.27443 -2.92996 11.8166
273 1 2.54634 -0.708802 11.8099
274 1 2.58018 0.746322 12.3453
281 1 -2.48764 -0.736504 11.8309
282 1 -1.23013 -1.47287 12.3436
283 1 -3.76413 -1.46684 12.3316
284 1 -2.51887 0.734804 12.3303
290 1 2.53821 -3.66387 12.3303
295 1 -2.51675 -3.66399 12.3307
296 1 -3.78019 -2.93105 11.8165
297 1 -1.25246 -2.93171 11.8167
301 1 -1.2547 2.95101 12.3461
315 1 0.0313161 -0.720387 11.8539
323 1 3.79401 2.96241 12.3367
351 1 3.78179 1.52545 11.7588
356 1 0.029708 3.65304 11.8399
357 1 1.30138 2.92689 12.3354
362 1 2.54163 3.68294 11.7845
367 1 -2.52975 3.65081 11.8155
39 2 4.72613 -0.963886 9.94518
46 2 4.68024 -1.05866 7.7667
53 2 4.69867 -3.44496 7.9745
54 2 4.70994 -3.45194 10.0091
147 2 4.64649 1.03101 7.61969
149 2 4.76875 1.09204 9.90122
249 2 4.70424 -0.985055 12.0635
256 2 4.71809 -3.45183 12.0925
350 2 4.69951 1.04282 12.0799
637 2 10.0928 4.21892 7.69565
638 2 10.1407 4.16684 9.83813
639 2 12.5882 4.20198 9.82729
641 2 12.576 4.25071 7.6215
642 2 7.69072 4.10531 9.78255
643 2 7.64897 4.21874 7.61554
697 2 10.2103 4.17975 12.0204
700 2 12.6295 4.2023 12.0235
702 2 7.71685 4.19485 11.9655
990 1 5.04934 3.67855 11.7732
991 2 5.90986 3.11583 12.0778
992 1 5.04081 3.6713 10.2264
993 2 5.90017 3.09231 9.9456
994 1 5.00294 3.64783 7.5595
995 2 5.89029 3.04959 7.73133
996 2 4.93108 3.72675 6.48412
640 2 15.0823 4.18397 9.79384
644 2 15.0996 4.23425 7.65341
696 2 15.0951 4.21033 11.9592
837 2 17.621 4.28457 7.66848
838 2 17.6844 4.20387 9.81073
842 2 20.1609 4.19093 9.86799
843 2 20.0946 4.2068 7.72049
899 2 17.6302 4.21843 12.0105
908 2 20.1856 4.19623 12.0364
835 2 22.7343 4.16214 7.76414
836 2 22.8299 4.13973 9.92051
839 2 25.404 4.15137 9.88162
840 2 27.8373 4.18729 9.88038
841 2 25.2943 4.14728 7.77795
844 2 27.8995 4.18796 7.72013
902 2 27.8161 4.22346 12.0502
903 2 22.7067 4.18901 12.1051
906 2 25.2801 4.18553 12.0512
24 1 -7.59005 5.14728 8.17595
25 1 -8.79075 5.91408 7.57878
26 1 -6.30951 5.86196 7.66331
27 1 -7.58932 5.13611 9.72897
28 1 -8.82658 5.92461 10.2282
29 1 -6.33772 5.87881 10.2561
61 2 -9.78057 5.51735 7.74906
62 2 -9.80138 5.54987 9.94071
91 1 -5.04635 8.01081 10.2302
124 1 -5.03205 8.01336 7.56807
125 1 -6.29923 7.33346 8.1423
126 2 -4.99848 9.09139 7.66302
127 1 -7.52867 8.04401 7.527
128 1 -8.77427 7.35749 8.14408
129 2 -7.45674 9.09916 7.76062
130 1 -7.55366 8.09424 10.2283
131 2 -7.52394 9.14032 9.95857
132 2 -5.06509 9.04132 9.91038
144 1 -6.32864 7.3237 9.68882
152 2 -9.66871 7.87771 7.83157
162 1 -8.81382 7.37526 9.69164
163 2 -9.71238 7.92862 9.93229
168 1 -5.06927 5.10366 8.19595
169 1 -5.08192 5.11986 9.74702
173 2 -8.68743 5.96824 6.50278
181 2 -6.31593 5.83678 6.58206
199 2 -5.04221 7.92896 6.48936
201 2 -7.47815 8.03328 6.44489
227 1 -7.60172 5.13801 12.3352
228 1 -8.82109 5.91723 11.7796
229 1 -6.33638 5.85735 11.8109
264 2 -9.79698 5.49905 11.9935
327 1 -5.04542 7.97472 11.774
328 1 -6.32983 7.31397 12.3382
329 2 -4.99594 9.0081 12.0674
330 1 -7.56202 8.06288 11.7784
331 1 -8.82998 7.36361 12.3346
332 2 -7.53925 9.10346 12.0804
355 2 -9.68723 7.92862 12.0018
371 1 -5.07556 5.12808 12.3372
11 1 3.81452 7.22817 9.66154
12 1 2.54302 7.92703 10.1993
13 1 3.78481 5.79649 7.61015
14 1 3.7746 7.25878 8.1159
34 1 1.22647 7.2462 8.13066
35 1 1.26492 7.23386 9.67602
45 1 0.0102754 7.95679 10.2226
49 1 1.22447 5.79369 7.60047
50 1 1.27131 5.79491 10.2459
52 2 2.56464 8.97152 9.90475
55 1 -2.52972 7.9646 7.57876
56 1 -1.28138 7.26156 8.1649
57 1 -3.79507 7.28479 8.15409
58 2 -2.52584 9.03553 7.7368
59 1 -2.52193 7.99325 10.2381
60 2 -2.49759 9.03079 9.93469
69 1 -1.27098 7.2476 9.71543
73 1 3.82133 5.79202 10.246
74 1 -1.28735 5.80023 7.65487
75 1 -1.26445 5.79946 10.2698
84 1 -0.0365183 7.958 7.56743
85 2 -0.0129186 9.03617 7.65387
86 2 0.0105025 9.00149 9.92926
102 1 2.49657 7.92276 7.54235
103 2 2.5166 8.99886 7.67313
110 1 -3.7898 7.28142 9.70244
113 1 -3.79762 5.81415 7.66343
114 1 -3.80629 5.83757 10.2648
137 1 -0.0031402 5.07121 9.74468
146 1 2.54136 5.10022 9.68934
155 1 -0.0263499 5.09416 8.19556
158 1 2.50391 5.10726 8.14605
160 1 -2.54358 5.07202 8.19527
161 1 -2.54395 5.10883 9.74675
176 2 3.7265 5.80382 6.53142
184 2 1.20441 5.74731 6.51577
186 2 -0.0596364 7.82996 6.48733
187 2 2.50705 7.82802 6.46258
188 2 -2.5986 7.94097 6.49839
193 2 -1.3375 5.78585 6.57487
200 2 -3.77904 5.80264 6.57656
216 1 3.84316 5.8167 11.7932
217 1 3.84026 7.27662 12.3098
237 1 1.29269 7.2858 12.3288
252 1 1.29864 5.82775 11.795
258 1 -2.50464 7.96915 11.7863
259 1 -1.23642 7.27896 12.3467
260 1 -3.78092 7.28878 12.3452
261 2 -2.58579 9.00134 12.0997
277 1 -1.25149 5.81734 11.8215
287 1 0.0271969 7.97659 11.7707
288 2 -0.0401013 9.01912 12.0597
305 1 2.5612 7.95415 11.7478
306 2 2.5279 9.01561 11.9618
316 1 -3.80336 5.83387 11.8166
358 1 0.0301636 5.11872 12.3396
361 1 2.56821 5.12397 12.341
363 1 -2.53259 5.11167 12.3269
581 1 5.06764 5.09401 8.12053
582 1 6.28744 5.84511 7.54102
583 1 5.09306 5.11561 9.6709
584 1 6.34921 5.84319 10.1996
587 1 12.6378 8.11484 10.1739
591 1 10.0885 8.09647 7.50033
592 1 11.3703 7.43984 8.07788
593 1 8.84111 7.4055 8.10047
594 2 10.0646 9.16981 7.62661
595 1 10.1063 8.06805 10.1983
596 2 10.0725 9.09145 9.85134
597 1 11.3776 7.3896 9.6296
599 1 11.3655 6.00342 7.49739
600 1 11.3617 5.93794 10.1728
601 1 12.6297 8.11718 7.4888
602 2 12.648 9.19155 7.60931
603 2 12.6715 9.15846 9.88426
604 1 7.56571 8.02607 10.1915
607 1 8.84623 7.34736 9.65034
608 1 8.85493 5.96631 7.52684
609 1 8.84753 5.88597 10.1858
610 1 7.5466 8.00007 7.49147
611 1 6.30139 7.29297 8.07607
612 2 7.45412 9.07373 7.62036
613 1 5.01667 7.9628 7.51844
614 2 4.99603 9.0368 7.61019
615 1 5.06712 7.97796 10.1782
616 2 5.1048 9.01538 9.86283
617 2 7.58429 9.04982 9.84799
618 1 12.6159 5.25215 9.57005
619 1 6.32973 7.28592 9.62292
621 1 12.6193 5.25716 8.01779
623 1 10.1294 5.24227 8.04145
624 1 10.1169 5.22196 9.59301
625 1 7.60503 5.20833 8.04986
626 1 7.60536 5.16484 9.59961
628 2 6.26608 5.85091 6.45685
630 2 12.6374 7.96275 6.41819
632 2 10.0748 7.95544 6.42834
633 2 11.3357 5.89042 6.4215
634 2 7.55244 7.95377 6.41351
635 2 8.9003 5.95495 6.44731
636 2 4.99376 7.91907 6.44019
649 1 5.11876 5.12128 12.3445
650 1 6.35264 5.8595 11.756
659 1 10.1026 8.07964 11.7491
660 1 11.3702 7.38577 12.3134
661 1 8.85682 7.3608 12.3247
662 2 10.1306 9.12723 12.0351
667 1 11.3693 5.95487 11.7228
669 1 12.6165 8.094 11.7265
670 2 12.5549 9.13602 12.0094
676 1 8.87514 5.927 11.732
678 1 7.58749 8.03437 11.7408
679 1 6.35159 7.29715 12.3275
680 2 7.62654 9.09189 11.9573
681 1 5.09527 7.97399 11.7244
682 2 5.11457 9.03024 11.9631
689 1 12.6212 5.25121 12.301
691 1 10.1355 5.22086 12.3015
693 1 7.63825 5.20528 12.3284
577 1 16.4149 7.3937 9.61067
578 1 15.158 8.1032 10.1721
579 1 16.3907 6.00363 7.49879
580 1 16.4054 7.44311 8.06357
585 1 13.8927 7.42339 8.07211
586 1 13.8937 7.39542 9.61967
588 1 13.8824 5.98511 7.50326
589 1 13.868 5.94576 10.1626
590 2 15.1577 9.13188 9.83014
598 1 16.3774 5.94201 10.1596
605 1 15.1438 8.09362 7.44877
606 2 15.1413 9.1682 7.56877
620 1 15.1219 5.24313 9.57585
622 1 15.1408 5.24936 8.02014
627 2 16.3967 6.00791 6.41201
629 2 13.8642 5.98852 6.41974
631 2 15.1201 7.96608 6.37674
647 1 16.3729 5.94958 11.7164
648 1 16.385 7.38736 12.3004
653 1 13.8749 7.39269 12.3003
656 1 13.8685 5.95867 11.7148
673 1 15.1286 8.09819 11.7241
674 2 15.1014 9.1328 12.0326
690 1 15.115 5.24338 12.2869
777 1 17.656 5.29985 8.04585
778 1 18.9348 6.00574 7.51843
779 1 17.6515 5.25919 9.59556
780 1 18.9118 5.93104 10.1935
789 1 21.4778 7.33682 8.09617
800 1 20.216 8.05232 10.1737
803 1 21.4787 7.32368 9.64595
804 1 21.4777 5.88652 7.54977
805 1 21.4559 5.87723 10.2094
806 1 20.2278 8.03012 7.49799
807 1 18.9141 7.44597 8.07872
808 2 20.2564 9.10166 7.64451
809 1 17.6621 8.12803 7.46915
810 2 17.6722 9.18702 7.67124
811 1 17.6789 8.08455 10.1857
812 2 17.5892 9.1118 9.86243
813 2 20.2329 9.08256 9.84974
817 1 18.9352 7.37032 9.62887
823 1 20.1687 5.2341 8.05883
824 1 20.1726 5.24133 9.61105
826 2 18.9284 6.06375 6.43491
832 2 20.2993 7.88578 6.42881
833 2 21.4958 5.81 6.46755
834 2 17.5723 8.04984 6.39332
851 1 17.6229 5.25324 12.3101
852 1 18.8924 5.93519 11.7433
863 1 21.4394 7.35271 12.3244
878 1 21.4485 5.91149 11.7601
880 1 20.1854 8.03542 11.726
881 1 18.9153 7.374 12.3165
882 2 20.1622 9.07071 12.0308
883 1 17.6598 8.07015 11.7374
884 2 17.6293 9.11336 12.0282
897 1 20.1606 5.24803 12.3107
771 1 29.0014 7.40103 9.6034
772 1 27.7642 8.09435 10.2326
773 2 29.8768 7.97597 9.86614
774 1 29.0634 5.98697 7.43466
775 1 29.0305 7.40866 8.05396
776 2 29.9271 7.94469 7.77514
781 1 26.5453 7.34961 8.13941
782 1 26.5171 7.35342 9.68538
783 1 25.2553 8.06826 10.2356
784 1 26.5728 5.90102 7.59453
785 1 26.5512 5.89842 10.2213
786 2 27.7558 9.12767 9.92139
787 1 22.7495 8.02058 7.53278
788 1 23.9977 7.32574 8.12853
790 2 22.8092 9.09138 7.67381
791 1 22.742 8.01556 10.2142
792 2 22.717 9.06142 9.94555
793 1 24.0155 7.31855 9.67933
794 1 29.0573 5.96935 10.1907
795 1 24.0154 5.87316 7.58792
796 1 24.0116 5.87301 10.2327
797 1 25.2667 7.99946 7.5349
798 2 25.3179 9.06438 7.72928
799 2 25.239 9.10164 9.91405
801 1 27.7529 8.09126 7.51045
802 2 27.6763 9.153 7.67218
814 1 25.2863 5.20462 9.66027
815 2 30.0291 5.53916 7.63167
816 2 29.9732 5.47749 9.88591
818 1 27.816 5.23596 9.62149
819 1 25.3004 5.18151 8.11246
820 1 27.8789 5.21799 8.0707
821 1 22.7348 5.18552 8.12138
822 1 22.738 5.18632 9.67276
825 2 29.0626 6.01125 6.3525
827 2 26.5888 5.90282 6.51115
828 2 25.2494 7.90376 6.45743
829 2 27.7674 8.00865 6.43568
830 2 22.7545 7.89614 6.45757
831 2 23.9978 5.85978 6.50793
848 1 29.044 5.97405 11.7361
849 1 29.0313 7.40199 12.3404
850 2 29.9172 7.93939 12.0329
855 1 26.5323 7.36213 12.359
858 1 26.5273 5.92109 11.7736
861 1 22.7237 8.00923 11.7614
862 1 23.9957 7.34588 12.3546
864 2 22.7516 9.05465 12.0409
869 1 23.9996 5.90582 11.785
871 1 25.2586 8.03458 11.7859
872 2 25.2282 9.08229 12.0694
875 1 27.7662 8.1 11.7859
876 2 27.7717 9.16861 11.9781
889 2 29.9398 5.43543 12.0025
893 1 25.2703 5.22401 12.3547
894 1 27.8081 5.26374 12.344
895 1 22.7209 5.24112 12.3434
325 2 -7.56866 -4.71253 14.1472
346 2 -5.04075 -4.71208 14.1467
514 2 -7.55775 -4.68748 18.3539
531 2 -5.03099 -4.703 16.1757
534 2 -7.55849 -4.70404 16.1741
538 2 -5.0308 -4.68708 18.3546
293 2 2.53819 -4.71287 14.1472
318 2 0.0103231 -4.71109 14.1464
359 2 -2.51524 -4.71313 14.1467
422 2 0.0194241 -4.70206 16.176
474 2 2.54703 -4.70339 16.1743
475 2 2.54576 -4.68718 18.3537
490 2 -2.50582 -4.70352 16.1761
505 2 0.0188113 -4.68635 18.3544
553 2 -2.50603 -4.68767 18.355
213 1 -5.06219 0.742706 13.8754
220 1 -5.08281 3.66419 14.4122
225 2 -9.77334 1.11102 14.1688
226 1 -8.80811 1.5056 14.4635
236 1 -7.59968 3.70729 14.43
243 1 -7.58594 0.752443 13.8692
244 1 -6.32616 1.48339 14.3839
254 1 -6.35484 2.95179 13.8865
279 1 -8.84479 2.95099 13.8942
280 2 -9.80935 3.3313 14.1853
303 2 -9.74846 -3.45202 14.1182
304 1 -8.83708 -2.93887 14.393
312 1 -7.56815 -3.6642 13.88
314 1 -6.30522 -2.93046 14.3942
322 1 -5.03321 -0.719596 14.3803
326 1 -5.04107 -3.66283 13.88
339 1 -8.79727 -1.47446 13.8651
348 1 -6.31521 -1.46027 13.8961
354 1 -7.56578 -0.709201 14.4105
370 2 -9.73742 -1.01962 14.1501
380 1 -5.04513 0.739363 16.4367
381 1 -6.31783 1.46893 15.9354
383 1 -5.01806 0.710277 17.9899
390 1 -5.03288 3.63804 18.5563
393 2 -9.78309 1.08152 16.3372
394 1 -8.83049 1.47688 16.0112
395 2 -9.68783 1.07019 18.6508
396 1 -8.6869 1.47582 18.7502
403 1 -7.61212 3.66642 15.9827
404 1 -6.34382 2.92214 16.4725
405 1 -8.81773 2.91241 16.5892
406 1 -7.50221 3.6865 18.6013
407 2 -7.45688 3.68105 19.6844
414 1 -7.53839 0.706808 18.0557
415 1 -6.26777 1.44826 18.5369
419 1 -7.56321 0.739943 16.5083
426 1 -6.29377 2.91195 18.0202
428 2 -6.20411 1.44481 19.6155
440 2 -9.79676 3.32927 16.3912
458 1 -8.74548 2.89285 18.1393
459 2 -9.66668 3.32212 18.5347
470 2 -8.48881 1.55741 19.8097
486 2 -9.72886 -3.4451 18.2363
487 1 -8.82371 -2.9331 18.5345
494 1 -7.56116 -3.66235 16.4637
495 1 -8.82597 -2.93532 15.9417
496 1 -6.29899 -2.92963 15.9426
497 1 -7.56004 -3.66095 18.0127
499 1 -6.29657 -2.92535 18.5231
507 1 -5.03496 -0.726928 15.9321
508 1 -6.29966 -1.4596 16.4416
509 1 -5.01802 -0.744432 18.524
510 2 -5.04474 -0.707236 19.6037
515 1 -5.03265 -3.66036 18.0122
526 1 -5.03525 -3.65998 16.4632
528 1 -8.80348 -1.48648 16.4965
529 1 -8.80076 -1.46182 18.0431
540 1 -6.28594 -1.46771 17.9912
546 1 -7.56631 -0.717068 15.9634
547 1 -7.52858 -0.753901 18.571
548 2 -7.47501 -0.751716 19.651
557 2 -6.23547 -2.87461 19.6064
567 2 -9.74978 -1.03567 16.2372
568 2 -9.74018 -3.45206 16.2019
570 2 -9.68358 -0.970138 18.4285
571 2 -8.75708 -3.06012 19.6031
574 1 -5.07781 3.65337 15.9612
575 2 -5.03938 3.60948 19.641
207 1 0.0225737 0.762606 13.9028
208 1 -1.25516 1.48005 14.3957
209 1 1.29864 1.48812 14.3877
219 1 -3.82402 2.93825 13.8708
221 1 -2.55307 3.6519 14.4008
222 1 -3.79168 1.4751 14.3789
240 1 3.79778 -1.47324 13.8859
241 1 2.55156 -0.714608 14.4105
246 1 3.81032 -2.93813 14.3914
268 1 1.29127 -1.46222 13.8905
269 1 0.0260369 -0.709894 14.3861
271 1 1.27782 -2.93006 14.3941
275 1 2.56905 0.745184 13.8945
285 1 -2.5073 -0.726239 14.3916
286 1 -2.51605 0.737398 13.8843
291 1 2.54097 -3.66423 13.8798
298 1 -2.51327 -3.66392 13.8798
299 1 -3.77684 -2.93098 14.394
300 1 -1.24906 -2.93165 14.394
302 1 -1.2753 2.94616 13.8939
308 1 -1.23573 -1.46087 13.8936
319 1 0.0147513 -3.66271 13.8793
324 1 3.81251 2.97234 13.8882
337 1 2.54626 3.67909 14.4302
342 1 3.7882 1.52905 14.4494
344 1 -3.76771 -1.46558 13.8796
345 1 1.29495 2.9567 13.8876
360 1 0.00982796 3.6553 14.3998
374 1 0.0225861 0.743097 16.4351
375 1 -1.2426 1.49394 15.9464
376 1 1.28928 1.47916 15.9341
377 1 -0.00777594 0.732376 17.9876
378 1 -1.26132 1.46151 18.5243
379 1 1.23829 1.45344 18.5576
382 1 -3.7826 1.47579 15.9277
388 1 -3.80196 2.92975 16.4715
389 1 -3.78131 2.89884 18.0253
391 1 -2.53328 3.6525 18.5496
392 1 -3.77126 1.44267 18.5392
410 1 3.7856 -1.4854 16.4855
411 1 3.7383 -1.46751 18.0365
412 1 2.50678 -0.708613 18.5872
416 1 3.81053 -2.93429 15.9399
417 1 3.81145 -2.9322 18.5337
418 2 3.68055 -2.90761 19.6066
423 1 0.0198368 -3.6596 16.4635
442 1 1.3004 -1.46806 16.4639
443 1 1.27797 -1.45624 18.015
444 1 0.00903763 -0.722069 18.5159
445 1 1.28275 -2.92902 15.9427
446 1 1.28386 -2.9247 18.5225
447 2 1.22949 -2.89619 19.607
449 1 2.55516 -0.710094 15.9592
450 1 2.53146 0.745569 16.4919
451 1 2.50999 0.73871 18.0393
452 2 2.50478 -0.693364 19.6718
460 1 -2.49098 -0.716473 15.9416
461 1 -1.2254 -1.46055 16.4347
462 1 -3.76301 -1.45656 16.4341
463 1 -2.51173 0.753919 16.4411
464 1 -2.49707 -0.741346 18.5009
465 1 -2.51409 0.721885 17.9883
466 2 -2.46306 -0.748838 19.5888
471 1 2.546 -3.66131 16.463
472 1 2.54775 -3.66053 18.0123
478 1 -2.50793 -3.66079 16.4638
479 1 -3.77109 -2.92959 15.9428
480 1 -1.24431 -2.92995 15.9429
481 1 -2.50633 -3.66099 18.0125
482 1 -3.76934 -2.92537 18.5244
483 1 -1.24277 -2.92571 18.5242
484 1 -1.25389 2.94707 16.4733
485 1 -1.26946 2.92621 18.0211
491 1 -1.23601 -1.46955 17.9806
493 2 -1.21364 -2.93511 19.6018
500 1 0.0463222 -0.72558 15.9358
501 2 -0.108752 -0.776652 19.5909
506 1 0.0204528 -3.6602 18.0116
511 1 3.77163 2.94409 16.5798
512 1 3.74865 2.95177 18.1278
513 2 1.16389 1.46729 19.6419
527 1 2.47336 3.67387 18.6303
532 2 3.57597 1.62863 19.7425
533 1 3.70536 1.50343 18.6747
535 1 -3.7601 -1.47197 17.9857
536 2 -3.7593 -2.99267 19.6
537 1 1.25112 2.91613 18.0549
544 1 3.78793 1.51136 15.995
550 1 0.0210882 3.647 15.9483
551 1 1.27489 2.91918 16.5034
554 1 -0.0153118 3.64601 18.5846
555 2 -0.0712127 3.60741 19.6667
558 1 2.5321 3.66927 15.9852
563 2 2.47462 3.67333 19.7129
564 1 -2.53383 3.65574 15.9552
565 2 -2.47958 3.69904 19.6315
569 2 -1.26727 1.40834 19.6065
576 2 -3.77596 1.37366 19.6242
242 2 4.7232 -0.986716 14.1589
257 2 4.72029 -3.45287 14.1155
352 2 4.73242 1.05259 14.2114
413 2 4.67383 -1.0515 18.3839
421 2 4.73046 -0.99903 16.2915
429 2 4.67336 -3.49479 16.2692
430 2 4.7411 -3.4719 18.4024
543 2 4.72439 1.09039 16.3463
545 2 4.63473 0.964424 18.5376
695 2 12.6586 4.1745 14.1374
699 2 10.0307 4.20086 14.1461
701 2 7.66483 4.16955 14.1895
763 2 10.1498 4.19275 18.4725
764 2 12.6784 4.14712 18.3974
766 2 12.666 4.15106 16.3246
767 2 7.67543 4.21992 18.6045
769 2 10.1714 4.19625 16.3445
770 2 7.68364 4.13363 16.3784
983 1 4.97587 3.69871 18.7036
984 2 4.86168 3.75475 19.7764
985 2 5.87364 3.12649 18.5428
986 1 5.02616 3.6732 16.0459
987 2 5.91747 3.10691 16.2951
988 1 5.04269 3.69756 14.4936
989 2 5.86676 3.06522 14.2016
698 2 15.1378 4.21051 14.0704
765 2 15.2143 4.16627 18.4761
768 2 15.0737 4.1522 16.302
900 2 17.6856 4.18187 14.1396
907 2 20.1776 4.17525 14.1422
974 2 17.6335 4.18055 16.3404
975 2 17.5844 4.18236 18.4497
979 2 20.1306 4.1609 18.4435
982 2 20.1263 4.12612 16.2829
901 2 25.2035 4.17241 14.1391
904 2 27.8184 4.17892 14.1579
905 2 22.7287 4.19729 14.1847
973 2 22.6776 4.09004 18.4016
976 2 25.3257 4.14004 18.4391
977 2 27.8186 4.15768 18.453
978 2 25.2736 4.13475 16.3287
980 2 27.8312 4.15935 16.3035
981 2 22.7545 4.12134 16.3439
230 1 -7.5829 5.16147 13.8875
231 1 -8.81393 5.93146 14.4267
232 1 -6.31443 5.87427 14.4207
265 2 -9.78885 5.54512 14.1644
294 1 -5.03744 8.01298 14.4573
333 1 -7.54922 8.07349 14.4401
334 2 -7.54913 9.11591 14.1573
335 2 -5.08341 9.06815 14.21
347 1 -6.3043 7.32592 13.8889
365 1 -8.8199 7.3844 13.8835
366 2 -9.75272 7.86572 14.1503
372 1 -5.06706 5.12324 13.8844
397 1 -7.59264 5.12418 16.5033
398 1 -8.81981 5.92188 15.9779
399 1 -6.33093 5.86903 15.9712
400 1 -7.59347 5.13561 18.0501
401 1 -8.77555 5.91276 18.6868
402 1 -6.30647 5.83437 18.5618
438 2 -9.76985 5.46022 16.2488
439 2 -9.75223 5.49812 18.4763
476 2 -4.98135 7.82689 19.7499
477 1 -5.01175 7.9639 18.6814
516 1 -5.04488 8.0147 16.0066
517 1 -6.30779 7.3073 16.5486
518 2 -4.99029 9.06767 16.2476
519 1 -7.54869 8.05306 15.9909
520 1 -8.80179 7.35522 16.5646
521 2 -7.5211 9.08877 16.3116
522 1 -7.52384 8.0414 18.6889
523 2 -7.57241 9.11246 18.516
524 2 -7.46754 7.90656 19.7653
525 2 -4.9294 9.0245 18.5115
539 1 -6.29267 7.31281 18.0998
542 2 -6.32554 5.82602 19.6423
549 2 -9.68965 7.88459 16.2326
561 1 -8.78892 7.35398 18.1129
562 2 -9.64177 7.91235 18.4727
566 2 -8.77295 5.89289 19.7679
572 1 -5.07261 5.11268 16.4785
573 1 -5.06081 5.09468 18.0245
214 1 3.83287 7.27955 13.8595
215 1 2.569 7.96737 14.4392
238 1 1.30963 7.26184 13.881
248 1 0.0491156 7.96155 14.4492
253 1 1.30775 5.81223 14.4241
255 2 2.4834 9.00343 14.1502
262 1 -2.50023 7.97125 14.4478
263 2 -2.52915 9.03321 14.2326
272 1 -1.22879 7.27935 13.8956
276 1 3.84897 5.85021 14.4392
278 1 -1.25168 5.81598 14.4071
289 2 0.0123863 9.0148 14.2063
313 1 -3.78309 7.29739 13.8986
317 1 -3.79464 5.8345 14.4107
340 1 0.0310959 5.11432 13.8839
349 1 2.58939 5.12946 13.8889
364 1 -2.53086 5.10894 13.8766
384 1 3.8336 7.29532 18.0959
385 1 2.54511 7.96883 18.6218
386 1 3.82898 5.83981 15.9886
387 1 3.83514 7.28998 16.5413
408 1 1.30087 7.26299 16.5253
409 1 1.274 7.27547 18.0717
420 1 0.00706226 7.96937 18.6353
424 1 1.30382 5.81565 15.9728
425 1 1.26034 5.82597 18.6183
427 2 2.51505 9.0336 18.4348
431 1 -2.50377 8.00473 15.9939
432 1 -1.24597 7.25873 16.5085
433 1 -3.771 7.28421 16.5096
434 2 -2.54643 9.04376 16.2892
435 1 -2.49877 7.93063 18.6532
436 2 -2.45632 9.01091 18.5793
437 2 -2.54292 7.74724 19.717
441 2 1.22605 5.76166 19.7042
448 1 -1.23896 7.26151 18.053
453 1 3.79574 5.83651 18.6238
454 2 3.75957 5.85796 19.7067
455 1 -1.23119 5.81011 15.956
456 1 -1.25678 5.79959 18.5574
457 2 -1.27574 5.77656 19.6416
467 1 0.0323249 7.98123 16.0013
468 2 0.0182003 9.03121 16.2659
469 2 -0.016115 9.04204 18.4583
473 2 -0.0576915 7.85685 19.7094
488 1 2.56377 7.98603 15.9914
489 2 2.51905 9.03436 16.2445
492 2 2.53998 7.92468 19.7002
498 1 -3.77246 7.27804 18.0582
502 1 -3.80314 5.83479 15.9629
503 1 -3.79428 5.81268 18.5568
504 2 -3.74712 5.76491 19.6347
530 1 0.0203847 5.09333 18.0417
541 1 2.53064 5.12165 18.0832
552 1 0.0293374 5.09519 16.4947
556 1 2.56686 5.11868 16.5351
559 1 -2.52701 5.11748 16.4638
560 1 -2.52947 5.10393 18.0097
651 1 5.11928 5.12669 13.8952
652 1 6.36969 5.86824 14.4341
655 1 12.626 8.09317 14.4438
663 1 10.1306 8.05167 14.4513
664 2 10.1297 9.10593 14.1906
665 1 11.3861 7.36805 13.8619
668 1 11.3972 5.9247 14.4357
671 2 12.645 9.14071 14.1796
672 1 7.59806 8.05489 14.4412
675 1 8.86816 7.36328 13.8759
677 1 8.88773 5.92854 14.4632
683 1 5.08697 7.9824 14.4492
684 2 5.01356 9.01725 14.1485
685 2 7.55691 9.1126 14.198
686 1 12.6406 5.21684 13.8446
687 1 6.35553 7.31366 13.8793
692 1 10.1311 5.24168 13.8538
694 1 7.6494 5.20386 13.88
707 1 5.09628 5.14143 16.5508
708 1 6.36758 5.82166 15.9918
709 1 5.07273 5.12158 18.1036
710 1 6.31594 5.87379 18.6481
713 1 12.6557 8.07359 18.6879
717 1 10.1327 8.09909 15.9968
718 1 11.3814 7.37374 16.5546
719 1 8.86875 7.37862 16.534
720 2 10.1564 9.14417 16.2684
721 1 10.1407 8.04766 18.7009
722 2 10.0934 9.1152 18.536
723 2 10.1361 7.94591 19.778
725 1 11.4019 7.37204 18.1026
728 1 11.3964 5.92925 15.991
729 1 11.403 5.93975 18.6889
730 2 11.3643 5.8694 19.7659
731 1 12.6426 8.08658 15.997
732 2 12.6475 9.14313 16.2216
733 2 12.7277 9.14647 18.5537
734 2 12.5728 7.89216 19.7547
735 2 7.64744 7.964 19.7315
736 1 7.59654 8.04987 18.6552
740 1 8.87696 7.39342 18.0842
741 1 8.88774 5.92157 16.0122
742 1 8.8692 5.95811 18.6572
743 2 8.81427 5.94619 19.7411
744 1 7.57314 8.03426 15.9915
745 1 6.34755 7.2765 16.5512
746 2 7.50565 9.06289 16.3097
747 1 5.09584 8.00174 15.9974
748 2 5.01254 9.05162 16.2575
749 1 5.07595 8.00972 18.682
750 2 5.04366 9.06699 18.453
751 2 5.14283 7.8813 19.7591
752 2 7.58534 9.12219 18.5501
753 1 12.6335 5.19437 18.1232
754 1 6.33975 7.32189 18.1009
756 2 6.27713 5.85166 19.7321
757 1 12.6362 5.2076 16.5765
759 1 10.1506 5.2464 16.6011
760 1 10.1349 5.22478 18.1495
761 1 7.64891 5.19108 16.5983
762 1 7.61796 5.19773 18.146
645 1 16.3941 7.37886 13.8508
646 1 15.1311 8.06726 14.4258
654 1 13.869 7.37489 13.8561
657 1 13.8745 5.94159 14.4443
658 2 15.211 9.11997 14.171
666 1 16.3964 5.94381 14.4302
688 1 15.133 5.26962 13.837
703 1 16.4025 7.39033 18.0937
704 1 15.1436 8.05524 18.6958
705 1 16.3966 5.91096 15.9807
706 1 16.3906 7.34844 16.5463
711 1 13.8937 7.35323 16.5461
712 1 13.894 7.35736 18.0956
714 1 13.8939 5.90316 15.9942
715 1 13.8936 5.91418 18.6609
716 2 15.0782 9.12732 18.5756
724 2 13.8608 5.89812 19.7412
726 1 16.3785 5.94776 18.6513
727 2 16.3789 5.93945 19.735
737 1 15.1479 8.06747 15.9741
738 2 15.1337 9.09332 16.3205
739 2 15.1291 7.98539 19.7746
755 1 15.1437 5.18109 18.1122
758 1 15.151 5.19886 16.5597
853 1 17.6492 5.22637 13.8569
854 1 18.9121 5.90741 14.4355
874 1 20.1783 8.01478 14.4583
877 1 21.4453 7.33008 13.8775
879 1 21.4402 5.89966 14.4572
885 1 17.661 8.0518 14.444
886 2 17.6703 9.10041 14.1881
887 2 20.2235 9.06794 14.2246
891 1 18.9105 7.3519 13.8645
898 1 20.1795 5.22412 13.8613
915 1 17.6675 5.23207 16.5586
916 1 18.9363 5.91242 15.9848
917 1 17.6305 5.2132 18.1081
918 1 18.9072 5.90545 18.6451
927 1 21.4621 7.31109 16.5569
943 2 20.2468 7.84394 19.7683
944 1 20.2228 7.99268 18.7014
948 1 21.4902 7.32327 18.103
949 1 21.4589 5.86482 16.0078
950 1 21.4502 5.87357 18.6305
951 2 21.4323 5.78578 19.7079
952 1 20.202 8.0289 16.0105
953 1 18.9209 7.35302 16.5568
954 2 20.2089 9.07477 16.2979
955 1 17.6603 8.05935 15.9986
956 2 17.6512 9.11632 16.2381
957 1 17.6798 8.03776 18.7006
958 2 17.7152 9.1183 18.6431
959 2 17.7016 7.80233 19.7521
960 2 20.205 9.05817 18.5257
964 1 18.9404 7.35648 18.1076
966 2 18.9095 5.81024 19.7208
971 1 20.1759 5.17703 16.5489
972 1 20.1676 5.18675 18.0978
845 1 29.0415 7.38327 13.8946
846 1 27.7786 8.0357 14.5138
847 2 29.9194 7.94748 14.1741
856 1 26.5353 7.34852 13.9096
857 1 25.2608 8.00138 14.4975
859 1 26.5451 5.91414 14.4854
860 2 27.7746 9.06037 14.1583
865 1 22.7147 7.9983 14.4596