ITEM: TIMESTEP
1000
ITEM: NUMBER OF ATOMS
442
ITEM: BOX BOUNDS ff ff ff
-1.0000000000000000e+02 1.0000000000000000e+02
-1.0000000000000000e+02 1.0000000000000000e+02
-1.0000000000000000e+02 1.0000000000000000e+02
ITEM: ATOMS id type x y z
137 2 -6.59027 -4.72741 10.1475
154 2 -4.1806 -4.74397 7.84749
157 2 -6.63823 -4.72543 7.86402
161 2 -4.22616 -4.78426 10.1018
47 2 0.663833 -4.78798 7.90917
97 2 3.10233 -4.7801 7.8793
98 2 3.13586 -4.7562 10.2569
113 2 -1.67387 -4.72455 7.86387
128 2 0.705949 -4.76184 10.2291
174 2 -1.80372 -4.74218 10.2174
334 2 10.4951 -4.78477 7.90274
357 2 5.5419 -4.75501 10.2505
372 2 8.02935 -4.75634 7.80563
377 2 5.47172 -4.80638 7.90165
382 2 7.98834 -4.78795 10.1537
396 2 10.4709 -4.77193 10.1038
274 2 12.9322 -4.71692 7.75639
320 2 15.5461 -4.76227 7.77678
321 2 15.5233 -4.75601 10.0449
348 2 13.0033 -4.78447 10.1128
7 1 -4.18757 0.690034 8.21737
8 1 -5.42856 1.45244 7.69593
10 1 -4.20751 0.691475 9.76337
17 1 -4.20718 3.66423 10.3533
20 2 -8.87998 1.07257 7.92279
21 1 -7.89974 1.46582 7.67501
22 2 -8.84581 0.990607 10.1119
23 1 -7.89969 1.4658 10.3436
30 1 -6.66683 3.67613 7.72987
31 1 -5.43426 2.89391 8.25592
32 1 -7.91531 2.91035 8.23466
33 1 -6.66676 3.67613 10.2886
34 2 -6.68844 3.68341 11.3701
40 1 -6.67206 0.7038 9.78401
41 1 -5.43075 1.44547 10.335
45 1 -6.67208 0.703793 8.23457
51 1 -5.42494 2.89496 9.80044
53 2 -5.42713 1.41003 11.4183
63 2 -8.803 3.33268 7.78538
81 1 -7.91527 2.91035 9.78399
82 2 -8.80857 3.35207 10.2092
93 2 -7.85306 1.50544 11.4241
109 2 -8.81268 -3.52166 10.1245
110 1 -7.89859 -2.98638 10.3446
117 1 -6.64671 -3.70574 8.23474
118 1 -7.89868 -2.98629 7.67413
119 1 -5.41272 -2.9612 7.67627
120 1 -6.64672 -3.7058 9.78376
122 1 -5.40737 -2.95957 10.3287
130 1 -4.19562 -0.752963 7.666
131 1 -5.41574 -1.51295 8.22431
132 1 -4.21461 -0.744446 10.3335
133 2 -4.20508 -0.712005 11.4167
138 1 -4.19311 -3.75061 9.78779
149 1 -4.20109 -3.73654 8.23817
151 1 -7.91627 -1.54208 8.23477
152 1 -7.91625 -1.54216 9.78398
163 1 -5.43074 -1.51695 9.76842
167 1 -6.67564 -0.762041 7.73086
168 1 -6.67561 -0.762013 10.2878
169 2 -6.69352 -0.768534 11.3698
178 2 -5.38782 -2.97229 11.4109
188 2 -8.84271 -1.09617 7.89487
189 2 -8.79678 -3.5648 7.84964
191 2 -8.83955 -1.11623 10.1526
192 2 -7.78405 -2.92929 11.4218
195 1 -4.18792 3.6377 7.73042
196 2 -4.23054 3.69845 11.4336
200 2 -5.47639 1.41562 6.61554
203 2 -4.19339 3.65699 6.64965
205 2 -7.85317 1.50539 6.59459
206 2 -6.69361 -0.768555 6.64886
208 2 -6.68857 3.68339 6.64838
215 2 -4.16423 -0.731243 6.58596
223 2 -7.84799 -2.96103 6.59345
224 2 -5.3852 -3.03235 6.59907
1 1 0.716786 0.677158 8.28654
2 1 -0.492662 1.45059 7.71147
3 1 1.94949 1.42718 7.71782
4 1 0.707849 0.674928 9.83648
5 1 -0.532196 1.43195 10.3687
6 1 1.94142 1.43871 10.3735
9 1 -2.95766 1.45046 7.67768
15 1 -2.95155 2.88081 8.26581
16 1 -2.97557 2.90108 9.80918
18 1 -1.74476 3.65951 10.3543
19 1 -2.97981 1.44607 10.3335
37 1 4.3414 -1.54343 8.23193
38 1 4.37168 -1.52556 9.78378
39 1 3.15923 -0.758551 10.358
42 1 4.33287 -3.01109 7.71307
43 1 4.35871 -2.96104 10.3621
44 2 4.31956 -2.8739 11.4395
48 1 0.676667 -3.77526 8.29436
65 1 1.90372 -1.54297 8.26102
66 1 1.92714 -1.523 9.81181
67 1 0.689187 -0.77888 10.3717
68 1 1.88788 -2.99771 7.73419
69 1 1.93136 -2.97293 10.3758
70 2 1.87401 -3.05521 11.4531
72 1 3.11262 -0.762955 7.70161
73 1 3.18922 0.677116 8.26869
74 1 3.17979 0.692683 9.81727
75 2 3.15778 -0.794563 11.4395
83 1 -1.74149 -0.759769 7.70773
84 1 -0.527235 -1.55086 8.25497
85 1 -2.98168 -1.50876 8.25005
86 1 -1.73251 0.689879 8.23531
87 1 -1.74991 -0.760826 10.3409
88 1 -1.75392 0.680192 9.7819
89 2 -1.80505 -0.736326 11.422
94 1 3.11005 -3.7731 8.28101
95 1 3.14624 -3.76121 9.82921
101 1 -1.76102 -3.73616 8.29337
102 1 -2.96675 -2.95834 7.71444
103 1 -0.529305 -2.9997 7.71699
104 1 -1.76105 -3.73045 9.84311
105 1 -2.99753 -2.96045 10.3642
106 1 -0.522707 -2.98349 10.3843
107 1 -0.512137 2.8899 8.28844
108 1 -0.515796 2.88376 9.83469
114 1 -0.533339 -1.54616 9.79969
116 2 -0.60448 -2.93784 11.4616
123 1 0.685462 -0.762531 7.70718
124 2 0.673731 -0.812516 11.4541
129 1 0.704534 -3.75231 9.8408
134 1 4.42708 2.8773 8.23243
135 1 4.41443 2.89444 9.78045
136 2 1.99945 1.36687 11.4579
150 1 3.1891 3.65131 10.3489
155 2 4.45153 1.45127 11.4237
156 1 4.42303 1.45366 10.341
158 1 -2.98782 -1.51639 9.7981
159 2 -3.00247 -2.93808 11.444
160 1 1.9523 2.88784 9.81532
166 1 4.4104 1.43042 7.68824
171 1 0.714455 3.62852 7.70643
172 1 1.9491 2.87322 8.26443
175 1 0.722119 3.64375 10.3814
176 2 0.728252 3.6083 11.4637
179 1 3.18022 3.63216 7.70535
184 2 3.16045 3.64875 11.4317
185 1 -1.72881 3.63898 7.69431
186 2 -1.7469 3.65858 11.4361
190 2 -0.51559 1.38065 11.4485
197 2 -0.495848 1.47518 6.62915
198 2 1.94455 1.43006 6.63535
201 2 -3.00658 1.48628 6.60142
204 2 -1.74474 3.62218 6.61134
209 2 3.09078 -0.786023 6.61636
211 2 4.40641 -3.00569 6.63127
216 2 -1.76794 -0.770403 6.62733
217 2 0.681291 -0.792705 6.62354
218 2 1.86877 -2.9694 6.65188
220 2 0.783495 3.6448 6.62466
221 2 -2.90461 -2.95278 6.63288
222 2 -0.615299 -3.01884 6.63815
228 2 3.16881 3.67722 6.62536
229 2 4.41021 1.4095 6.60688
230 2 -2.96649 1.45441 11.4151
232 1 11.7412 1.45333 7.6955
235 1 11.752 1.42928 10.3102
237 1 8.05808 0.636777 8.21943
238 1 6.85337 1.44609 7.68825
239 1 9.28449 1.41769 7.69236
240 1 8.08346 0.659249 9.77017
246 1 9.29157 2.87638 8.22299
247 1 9.28948 2.88112 9.77175
248 1 8.07845 3.67062 10.3237
249 1 10.5132 3.66122 10.3083
251 1 9.30689 1.43252 10.3192
256 1 5.63294 3.66148 7.66035
257 1 6.86302 2.9033 8.21613
258 1 5.64463 3.65609 10.3404
259 2 5.65411 3.60668 11.4196
266 1 5.63985 0.668215 9.78841
267 1 6.86999 1.44534 10.3224
271 1 5.63403 0.667391 8.23929
278 1 6.86273 2.89277 9.76615
280 2 6.85981 1.47821 11.4026
307 1 10.5164 -0.795993 7.71252
308 1 11.7684 -1.55509 8.22887
309 1 9.27534 -1.56106 8.24439
310 1 10.521 0.663699 8.23474
311 1 10.5441 -0.81464 10.3108
312 1 10.5218 0.64317 9.78184
313 2 10.5128 -0.831253 11.3917
324 1 10.5166 -3.75232 8.22111
325 1 9.26947 -3.00688 7.68968
326 1 11.7504 -2.99702 7.67066
327 1 10.5307 -3.74095 9.77178
328 1 9.27707 -3.01459 10.3149
329 1 11.8015 -3.02138 10.2878
330 1 11.7462 2.90926 8.22403
331 1 11.7384 2.88421 9.77394
335 1 11.7885 -1.56182 9.77585
337 2 11.8139 -2.97794 11.3714
338 1 5.54334 -3.79209 8.27814
339 1 6.77595 -3.03075 7.71967
340 1 5.57067 -3.75837 9.82446
342 1 6.80894 -2.99032 10.3464
350 1 8.04367 -0.81411 7.68314
351 1 6.80236 -1.56379 8.22492
352 1 8.06099 -0.787213 10.3339
353 2 8.01865 -0.824525 11.4132
358 1 8.023 -3.76527 9.79165
368 1 8.03603 -3.76605 8.24228
379 1 9.29238 -1.55738 9.79354
380 2 9.27823 -3.06596 11.3958
384 1 6.83585 -1.5523 9.77417
390 1 5.57512 -0.782759 7.68991
391 1 5.61006 -0.782614 10.3301
392 2 5.64352 -0.777188 11.4136
400 2 6.85238 -2.95435 11.425
405 1 10.5117 3.67338 7.68812
406 2 10.5517 3.67392 11.391
407 2 11.7631 1.46451 11.3933
410 1 8.0876 3.67823 7.67038
411 2 8.09547 3.68146 11.404
412 2 11.7206 1.44529 6.61576
414 2 6.8593 1.45559 6.60703
415 2 9.31632 1.43532 6.61213
417 2 8.12859 3.70703 6.58791
418 2 10.5052 3.67527 6.60752
419 2 5.57838 -0.797641 6.6059
421 2 5.61895 3.66117 6.5763
428 2 8.13213 -0.785544 6.60379
429 2 10.5001 -0.779068 6.62778
434 2 9.27191 -3.0269 6.60568
435 2 11.7403 -3.08603 6.58586
436 2 6.78113 -3.00572 6.636
442 2 9.35949 1.41723 11.4045
231 1 12.9722 0.670606 8.21923
233 1 14.2219 1.44075 7.72964
234 1 12.9857 0.661626 9.7713
236 1 14.2272 1.42007 10.2941
262 1 16.7499 -1.53589 8.13959
263 1 16.7645 -1.55826 9.68899
264 1 15.5146 -0.817332 10.2349
265 2 17.6721 -1.08729 10.0346
268 1 16.7638 -2.97625 7.57561
269 1 16.7865 -3.00232 10.235
270 2 16.7299 -2.98449 11.3178
273 2 17.6693 -1.09735 7.78727
275 1 13.0155 -3.72553 8.18541
281 2 17.6862 -3.47757 7.82414
282 2 17.7139 -3.503 9.98618
291 1 14.2475 -1.54392 8.17918
292 1 14.2625 -1.56792 9.72725
293 1 13.0368 -0.801816 10.2855
294 1 14.2643 -2.99224 7.63834
295 1 14.2921 -3.0306 10.234
296 2 14.3029 -3.07023 11.3139
298 1 15.4907 -0.769575 7.66755
299 1 15.4713 0.677325 8.22467
300 1 15.4809 0.663074 9.77771
301 2 15.5106 -0.812065 11.3185
317 1 15.5329 -3.73745 8.12327
318 1 15.5429 -3.74199 9.6729
343 1 12.9914 -0.780212 7.68541
344 2 13.0295 -0.824641 11.3665
349 1 13.03 -3.7767 9.73606
354 1 16.7025 2.88793 8.25839
355 1 16.6971 2.87774 9.80978
356 2 14.2122 1.32171 11.3728
369 1 15.4626 3.65745 10.3166
370 2 17.6304 3.3129 10.1419
373 2 16.6088 1.4175 11.4343
374 1 16.6967 1.42629 10.3546
378 2 17.6218 3.37612 7.96329
381 1 14.2196 2.8949 9.80768
387 2 17.6896 1.03876 7.90124
388 1 16.7073 1.44513 7.68559
389 2 17.6465 0.956386 10.1466
393 1 12.9929 3.68388 7.73242
394 1 14.2275 2.9025 8.25411
397 1 12.9691 3.66763 10.2963
398 2 12.9933 3.66789 11.3729
401 1 15.4707 3.67154 7.74174
404 2 15.4573 3.66139 11.3977
413 2 14.2367 1.38948 6.65013
422 2 15.5481 -0.734811 6.58206
424 2 16.7301 -2.94204 6.49907
430 2 12.9545 -0.774503 6.60214
431 2 14.2758 -2.95686 6.56058
433 2 13.0226 3.66091 6.64954
440 2 15.4016 3.6572 6.6635
441 2 16.622 1.53023 6.60981
24 1 -6.68075 5.14114 8.23452
25 1 -7.90484 5.91764 7.68577
26 1 -5.42366 5.86042 7.71019
27 1 -6.68069 5.14115 9.78401
28 1 -7.9048 5.91768 10.3327
29 1 -5.4384 5.88148 10.3337
61 2 -8.82551 5.40994 7.96263
62 2 -8.85841 5.47567 10.0899
99 2 -4.14831 7.92087 11.465
100 1 -4.18283 8.07127 10.392
139 1 -4.17624 8.07778 7.66628
140 1 -5.40326 7.31723 8.23061
141 2 -4.11919 9.13438 7.87427
142 1 -6.63578 8.06941 7.68379
143 1 -7.90143 7.36648 8.2346
144 2 -6.55956 9.12416 7.91768
145 1 -6.63582 8.06939 10.3347
146 2 -6.55009 9.10708 10.0293
147 2 -6.65811 8.02028 11.4154
148 2 -4.17202 9.12089 10.1239
162 1 -5.39547 7.32999 9.78142
165 2 -5.40168 5.91708 11.4159
170 2 -8.77613 7.88765 7.85782
182 1 -7.90144 7.36649 9.78393
183 2 -8.78106 7.88144 10.1424
187 2 -7.87231 5.95767 11.4137
193 1 -4.19821 5.08816 8.25327
194 1 -4.21043 5.10593 9.8022
199 2 -7.8725 5.9576 6.60485
207 2 -5.40898 5.92767 6.6289
225 2 -4.12129 8.08088 6.5816
227 2 -6.65814 8.02049 6.60313
11 1 4.38362 7.33666 9.74127
12 1 3.15061 8.06964 10.331
13 1 4.38834 5.86934 7.68551
14 1 4.3755 7.3305 8.19359
35 1 1.94178 7.28344 8.21934
36 1 1.93279 7.2947 9.77124
46 1 0.714218 8.05153 10.3521
49 1 1.94585 5.83067 7.68433
50 1 1.95351 5.86123 10.3605
52 2 3.092 9.11936 10.0765
54 1 -1.72485 8.04409 7.65344
55 1 -0.508302 7.27958 8.2241
56 1 -2.95678 7.31835 8.24349
57 2 -1.77825 9.10063 7.86452
58 1 -1.70417 8.04967 10.3686
59 2 -1.71179 9.09749 10.1164
60 2 -1.65907 7.98502 11.4477
64 2 1.96492 5.85006 11.4367
71 1 -0.499718 7.28759 9.76911
76 1 4.40498 5.89171 10.3031
77 2 4.37125 5.94339 11.3853
78 1 -0.501134 5.82749 7.69488
79 1 -0.512239 5.83823 10.3298
80 2 -0.552859 5.86593 11.4094
90 1 0.714857 8.02742 7.63259
91 2 0.735622 9.09112 7.83869
92 2 0.742029 9.09269 10.0747
96 2 0.692927 8.01713 11.4305
111 1 3.13626 8.04229 7.58651
112 2 3.08542 9.09318 7.84265
115 2 3.16078 8.01825 11.4131
121 1 -2.95852 7.34053 9.7933
125 1 -2.97959 5.867 7.71259
126 1 -2.98412 5.88611 10.3281
127 2 -2.88462 5.87599 11.4043
153 1 0.734796 5.08341 9.81313
164 1 3.17717 5.09752 9.79911
173 1 0.728929 5.07416 8.26151
177 1 3.1789 5.07941 8.25143
180 1 -1.7504 5.09163 8.2386
181 1 -1.75972 5.10151 9.78936
202 2 4.36053 5.8271 6.6027
210 2 1.90921 5.80323 6.60183
212 2 0.688195 7.99354 6.54797
213 2 3.10241 7.92623 6.50973
214 2 -1.73167 8.0033 6.57605
219 2 -0.468792 5.83887 6.61171
226 2 -2.92862 5.81549 6.63326
252 1 5.62846 5.10823 8.21922
253 1 6.83132 5.91471 7.67587
254 1 5.62063 5.09547 9.76924
255 1 6.83352 5.87622 10.3339
283 1 10.5254 8.07114 7.68707
284 1 11.7717 7.3418 8.24763
285 1 9.27081 7.35677 8.2496
286 2 10.5164 9.10369 8.00581
287 1 10.5078 8.05039 10.4202
288 2 10.4656 9.11384 10.2173
289 2 10.5138 7.98509 11.503
297 1 11.7458 7.35994 9.79473
304 1 11.7613 5.89293 7.70211
305 1 11.743 5.8933 10.3122
306 2 11.713 5.89644 11.3949
322 2 7.97583 8.01464 11.4638
323 1 8.03842 8.04045 10.3802
341 1 9.2846 7.3287 9.79905
345 1 9.28222 5.90638 7.70606
346 1 9.28928 5.87267 10.3256
347 2 9.25749 5.83412 11.4073
359 1 8.05221 8.09757 7.65246
360 1 6.81577 7.36244 8.22016
361 2 8.04372 9.15449 7.87802
362 1 5.59253 8.08599 7.60344
363 2 5.5211 9.14976 7.7951
364 1 5.59418 8.09235 10.343
365 2 5.62042 9.15158 10.1173
366 2 5.57876 8.059 11.426
367 2 7.99105 9.1052 10.1716
383 1 6.80655 7.32218 9.77275
386 2 6.80684 5.89461 11.4148
402 1 10.5167 5.12785 8.2199
403 1 10.5249 5.115 9.76778
408 1 8.05061 5.12589 8.22201
409 1 8.06114 5.11401 9.77145
420 2 6.85231 5.93711 6.59673
427 2 10.5725 8.03093 6.60328
432 2 11.7876 5.90375 6.62203
437 2 8.01563 7.95283 6.57955
438 2 9.26084 5.92654 6.62289
439 2 5.5596 8.04325 6.52449
241 1 16.7822 7.35072 9.82816
242 1 15.5335 8.06538 10.3955
243 2 17.6824 7.86314 10.1468
244 1 16.7544 5.88315 7.71232
245 1 16.7741 7.32996 8.27474
250 2 17.6502 7.82798 7.88204
260 1 14.2854 7.34954 8.29652
261 1 14.2689 7.34865 9.84959
272 1 12.9993 8.05444 10.3874
276 1 14.2731 5.89057 7.78487
277 1 14.2557 5.86836 10.3195
279 2 15.5491 9.13262 10.1998
290 2 14.2256 5.80002 11.3988
302 1 16.7389 5.90151 10.3669
303 2 16.6475 5.93393 11.4441
314 1 13.0375 8.05893 7.71193
315 2 13.0613 9.12182 7.90362
316 2 12.9628 9.10384 10.1208
319 2 12.9396 8.10805 11.4671
332 1 15.5307 8.06329 7.71395
333 2 15.5387 9.13243 7.91107
336 2 15.5732 7.99878 11.4736
371 1 12.9945 5.13525 9.79998
375 2 17.712 5.44972 7.96844
376 2 17.6864 5.42448 10.1551
385 1 15.5188 5.12482 9.8199
395 1 13.0051 5.14113 8.24766
399 1 15.5265 5.12816 8.27157
416 2 16.7672 5.86382 6.63084
423 2 14.2578 5.90836 6.70186
425 2 13.0007 7.97299 6.63544
426 2 15.529 7.90881 6.64692
ITEM: TIMESTEP
2000
ITEM: NUMBER OF ATOMS
442
ITEM: BOX BOUNDS ff ff ff
-1.0000000000000000e+02 1.0000000000000000e+02
-1.0000000000000000e+02 1.0000000000000000e+02
-1.0000000000000000e+02 1.0000000000000000e+02
ITEM: ATOMS id type x y z
137 2 -5.63433 -4.69852 10.2034
157 2 -5.68467 -4.70355 7.81681
154 2 -3.09649 -4.60613 7.83355
161 2 -3.04207 -4.62032 10.0911
47 2 2.17441 -4.54497 7.85099
97 2 4.74809 -4.52258 7.8596
98 2 4.66981 -4.51779 10.1152
113 2 -0.436886 -4.55255 7.83114
128 2 2.13105 -4.57286 10.1163
174 2 -0.518045 -4.57633 10.0983
334 2 12.4978 -4.71211 7.87973
357 2 7.25682 -4.6101 10.0845
372 2 9.85893 -4.69304 7.82564
377 2 7.2002 -4.57567 7.83142
382 2 9.84903 -4.70013 10.1302
396 2 12.3874 -4.68902 10.1336
274 2 14.9518 -4.7018 7.8582
320 2 17.4914 -4.67872 7.84695
321 2 17.5117 -4.73221 10.0878
348 2 15.0205 -4.67312 10.1798
8 1 -4.40258 1.46214 7.7657
20 2 -7.86748 1.04121 7.91938
21 1 -6.89974 1.46582 7.67501
22 2 -7.87973 1.0706 10.1067
23 1 -6.89969 1.4658 10.3436
30 1 -5.66683 3.67613 7.72987
31 1 -4.39942 2.93722 8.22926
32 1 -6.91531 2.91035 8.23466
33 1 -5.66676 3.67613 10.2886
34 2 -5.68844 3.68341 11.3701
40 1 -5.67206 0.7038 9.78401
41 1 -4.38708 1.45189 10.228
45 1 -5.67208 0.703793 8.23457
51 1 -4.40864 2.93172 9.77613
53 2 -4.32697 1.42404 11.3091
63 2 -7.82507 3.29512 7.79595
81 1 -6.91527 2.91035 9.78399
82 2 -7.7994 3.34813 10.2368
93 2 -6.85306 1.50544 11.4241
109 2 -7.84522 -3.46855 10.1427
110 1 -6.89859 -2.98638 10.3446
117 1 -5.64671 -3.70574 8.23474
118 1 -6.89868 -2.98629 7.67413
119 1 -4.39198 -2.91894 7.76539
120 1 -5.64672 -3.7058 9.78376
122 1 -4.38916 -2.92347 10.242
131 1 -4.37326 -1.44088 8.22646
151 1 -6.91627 -1.54208 8.23477
152 1 -6.91625 -1.54216 9.78398
163 1 -4.38335 -1.44698 9.77615
167 1 -5.67564 -0.762041 7.73086
168 1 -5.67561 -0.762013 10.2878
169 2 -5.69352 -0.768534 11.3698
178 2 -4.34995 -2.96873 11.3231
188 2 -7.81996 -1.05321 7.89347
189 2 -7.85685 -3.46445 7.84211
191 2 -7.82099 -1.06536 10.135
192 2 -6.80597 -2.95611 11.424
200 2 -4.4543 1.476 6.68606
205 2 -6.85317 1.50539 6.59459
206 2 -5.69361 -0.768555 6.64886
208 2 -5.68857 3.68339 6.64838
223 2 -6.84799 -2.96103 6.59345
224 2 -4.36031 -2.96606 6.6863
7 1 -3.09378 0.754601 8.21689
10 1 -3.08871 0.736735 9.76745
17 1 -3.10164 3.62544 10.2372
130 1 -3.08747 -0.721431 7.74672
132 1 -3.08496 -0.74109 10.2444
133 2 -3.07626 -0.669379 11.3254
138 1 -3.08018 -3.59179 9.75704
149 1 -3.06197 -3.592 8.20725
195 1 -3.10048 3.63948 7.76275
196 2 -3.07966 3.59275 11.3181
203 2 -3.12423 3.61914 6.68361
215 2 -3.11314 -0.670636 6.6666
1 1 2.13057 0.773548 8.22363
2 1 0.820786 1.4566 7.74077
3 1 3.44464 1.44511 7.74797
4 1 2.12012 0.772897 9.77135
5 1 0.813495 1.44425 10.2524
6 1 3.43579 1.42153 10.275
9 1 -1.79098 1.44904 7.74172
15 1 -1.80179 2.92638 8.21556
16 1 -1.80215 2.91808 9.76462
18 1 -0.483567 3.56614 10.2523
19 1 -1.79102 1.44239 10.2407
39 1 4.73287 -0.707487 10.2759
48 1 2.14303 -3.52183 8.20699
65 1 3.44475 -1.36237 8.22129
66 1 3.42996 -1.37143 9.76778
67 1 2.13278 -0.688534 10.2784
68 1 3.43183 -2.82165 7.70409
69 1 3.42312 -2.83292 10.2758
70 2 3.3438 -2.82984 11.3542
72 1 4.75292 -0.68667 7.73492
73 1 4.74814 0.772155 8.24485
74 1 4.75388 0.762945 9.79374
75 2 4.67529 -0.771679 11.3531
83 1 -0.482744 -0.70461 7.74182
84 1 0.834053 -1.36827 8.21811
85 1 -1.7795 -1.41439 8.20706
86 1 -0.483337 0.770568 8.22183
87 1 -0.470376 -0.733531 10.2414
88 1 -0.485552 0.745861 9.77026
89 2 -0.480417 -0.643098 11.3213
94 1 4.73493 -3.49248 8.20092
95 1 4.72052 -3.49992 9.75128
101 1 -0.459907 -3.54504 8.22126
102 1 -1.77054 -2.88185 7.71403
103 1 0.8351 -2.83878 7.72849
104 1 -0.466371 -3.54881 9.76949
105 1 -1.78166 -2.88828 10.2535
106 1 0.848381 -2.87092 10.2515
107 1 0.81198 2.92554 8.21884
108 1 0.843873 2.91762 9.76772
114 1 0.85311 -1.39932 9.76901
116 2 0.801637 -2.78885 11.3298
123 1 2.13811 -0.69192 7.71746
124 2 2.14144 -0.790945 11.3558
129 1 2.15108 -3.55186 9.75704
136 2 3.46696 1.40067 11.3585
150 1 4.76944 3.57633 10.2942
158 1 -1.77758 -1.42021 9.76135
159 2 -1.75501 -2.87952 11.3342
160 1 3.45504 2.90138 9.81716
171 1 2.14926 3.571 7.77156
172 1 3.45404 2.90725 8.2645
175 1 2.14316 3.57915 10.2876
176 2 2.10258 3.53357 11.3679
179 1 4.75716 3.59178 7.77829
184 2 4.788 3.55951 11.3762
185 1 -0.494728 3.60112 7.72783
186 2 -0.436641 3.53074 11.3325
190 2 0.82256 1.39495 11.3305
197 2 0.752777 1.52284 6.6626
198 2 3.50451 1.43691 6.66736
201 2 -1.8278 1.45857 6.66538
204 2 -0.492524 3.63743 6.64627
209 2 4.80983 -0.700811 6.64985
216 2 -0.454984 -0.683081 6.66112
217 2 2.09931 -0.704695 6.63354
218 2 3.41795 -2.82406 6.61981
220 2 2.1485 3.62785 6.68806
221 2 -1.76029 -2.90192 6.6297
222 2 0.831868 -2.87584 6.64683
228 2 4.77042 3.60327 6.69691
230 2 -1.80387 1.46679 11.3224
37 1 6.03574 -1.37247 8.25406
38 1 6.04354 -1.38204 9.80028
42 1 6.02978 -2.81327 7.68677
43 1 6.01831 -2.85057 10.2884
44 2 5.99933 -2.78627 11.3672
134 1 6.06479 2.91016 8.25117
135 1 6.07311 2.9088 9.79763
155 2 6.06691 1.44427 11.3689
156 1 6.05643 1.44084 10.2849
166 1 6.04107 1.45305 7.73
211 2 6.03775 -2.76588 6.60484
229 2 6.02257 1.43617 6.64831
237 1 9.91446 0.706493 8.20263
238 1 8.63181 1.42791 7.71801
239 1 11.1767 1.44694 7.69998
240 1 9.92537 0.689315 9.75046
246 1 11.1885 2.90475 8.22012
247 1 11.191 2.895 9.77502
248 1 9.92086 3.60992 10.3111
249 1 12.4596 3.63812 10.2758
251 1 11.1909 1.42387 10.261
256 1 7.35768 3.59733 7.74452
257 1 8.64288 2.88833 8.24239
258 1 7.36551 3.59897 10.2988
259 2 7.39968 3.5765 11.3781
266 1 7.342 0.75086 9.77302
267 1 8.65279 1.41456 10.2611
271 1 7.33175 0.749381 8.22458
278 1 8.65088 2.88927 9.79185
280 2 8.67315 1.43247 11.3422
307 1 12.4195 -0.763722 7.68824
309 1 11.1736 -1.52307 8.20636
310 1 12.4407 0.700818 8.1923
311 1 12.4474 -0.776036 10.2673
312 1 12.448 0.678406 9.74122
313 2 12.3928 -0.75746 11.346
324 1 12.4458 -3.68762 8.22986
325 1 11.1575 -2.99339 7.71141
327 1 12.4497 -3.66444 9.78103
328 1 11.1447 -2.97412 10.2516
338 1 7.28446 -3.56147 8.20242
339 1 8.60493 -2.91432 7.72162
340 1 7.28359 -3.57606 9.75458
342 1 8.59436 -2.93184 10.2693
350 1 9.91726 -0.760692 7.71003
351 1 8.62407 -1.44391 8.21537
352 1 9.91285 -0.77023 10.2735
353 2 9.96798 -0.796247 11.3521
358 1 9.85795 -3.67876 9.75927
368 1 9.86551 -3.68211 8.20824
379 1 11.174 -1.50427 9.75735
380 2 11.1624 -2.98661 11.3322
384 1 8.62199 -1.4684 9.76737
390 1 7.34137 -0.717846 7.72572
391 1 7.36207 -0.715605 10.2653
392 2 7.35608 -0.68845 11.3499
400 2 8.6101 -2.92234 11.3502
405 1 12.4449 3.65079 7.69899
406 2 12.4402 3.62387 11.359
410 1 9.90857 3.6472 7.75894
411 2 9.93056 3.6051 11.3923
414 2 8.64901 1.47811 6.63718
415 2 11.1839 1.49845 6.61952
417 2 9.90494 3.68899 6.6769
418 2 12.4784 3.74352 6.62206
419 2 7.33345 -0.673634 6.64182
421 2 7.39215 3.63453 6.66196
428 2 9.94518 -0.80212 6.62806
429 2 12.4112 -0.785205 6.60241
434 2 11.1364 -3.01157 6.62737
436 2 8.67699 -2.85032 6.6429
442 2 11.2409 1.42589 11.3476
232 1 13.7007 1.4442 7.69287
235 1 13.699 1.4329 10.2601
308 1 13.6913 -1.48809 8.20516
326 1 13.7134 -2.95574 7.71038
329 1 13.714 -2.93756 10.2965
330 1 13.7158 2.91042 8.19867
331 1 13.71 2.89552 9.74446
335 1 13.7273 -1.48786 9.75249
337 2 13.6522 -2.90058 11.3781
407 2 13.6905 1.39882 11.3443
412 2 13.7163 1.46942 6.61525
435 2 13.6966 -3.00447 6.62982
231 1 14.9609 0.702138 8.20543
233 1 16.2244 1.43784 7.69697
234 1 14.9727 0.708473 9.753
236 1 16.2419 1.44088 10.2614
262 1 18.7529 -1.50121 8.21909
263 1 18.7628 -1.54061 9.76347
264 1 17.5156 -0.767776 10.2701
265 2 19.6826 -1.14195 10.1793
268 1 18.7334 -2.93024 7.61756
269 1 18.7372 -2.98131 10.3269
270 2 18.6558 -2.95228 11.4054
273 2 19.6862 -1.0472 7.93165
275 1 14.9753 -3.68578 8.2332
281 2 19.6233 -3.48516 7.86508
282 2 19.6607 -3.48719 10.0833
291 1 16.2119 -1.47671 8.18964
292 1 16.2484 -1.48313 9.73909
293 1 14.99 -0.748613 10.2736
294 1 16.2161 -2.94238 7.67714
295 1 16.2637 -2.94162 10.265
296 2 16.2308 -2.93661 11.3442
298 1 17.496 -0.764549 7.68667
299 1 17.4888 0.694948 8.20566
300 1 17.4948 0.689202 9.75156
301 2 17.5015 -0.775146 11.3538
317 1 17.4894 -3.65094 8.18728
318 1 17.5025 -3.70833 9.73786
343 1 14.9471 -0.755099 7.67236
344 2 14.9657 -0.764836 11.3551
349 1 14.9834 -3.66453 9.78301
354 1 18.7215 2.87665 8.17283
355 1 18.7444 2.8877 9.71878
356 2 16.2434 1.39252 11.3435
369 1 17.5041 3.63685 10.2794
370 2 19.6939 3.32368 10.0005
373 2 18.6251 1.50727 11.3841
374 1 18.7224 1.45655 10.3061
378 2 19.656 3.28574 7.81069
381 1 16.2489 2.90099 9.74839
387 2 19.6771 1.00969 7.75628
388 1 18.7031 1.44338 7.5932
389 2 19.6766 0.986587 10.1147
393 1 14.9769 3.64201 7.67747
394 1 16.2413 2.91117 8.202
397 1 14.9786 3.60892 10.2762
398 2 15.0222 3.60036 11.3545
401 1 17.4853 3.66004 7.66273
404 2 17.4961 3.623 11.3591
413 2 16.2034 1.35953 6.62039
422 2 17.537 -0.725481 6.60229
424 2 18.6687 -2.89254 6.54285
430 2 14.932 -0.78866 6.58782
431 2 16.2054 -2.89359 6.60123
433 2 15.0078 3.62612 6.59275
440 2 17.4273 3.68658 6.58435
441 2 18.5454 1.4943 6.52422
24 1 -5.68075 5.14114 8.23452
25 1 -6.90484 5.91764 7.68577
26 1 -4.3794 5.84849 7.76766
27 1 -5.68069 5.14115 9.78401
28 1 -6.9048 5.91768 10.3327
29 1 -4.38585 5.83842 10.2771
61 2 -7.85196 5.44655 7.93003
62 2 -7.87222 5.49528 10.1122
140 1 -4.39195 7.32702 8.23467
142 1 -5.63578 8.06941 7.68379
143 1 -6.90143 7.36648 8.2346
144 2 -5.56403 9.11171 7.97582
145 1 -5.63582 8.06939 10.3347
146 2 -5.53193 9.11998 10.0863
147 2 -5.65811 8.02028 11.4154
162 1 -4.39976 7.31357 9.78611
165 2 -4.37057 5.87368 11.3615
170 2 -7.83882 7.81788 7.94536
182 1 -6.90144 7.36649 9.78393
183 2 -7.78804 7.89521 10.1035
187 2 -6.87231 5.95767 11.4137
199 2 -6.8725 5.9576 6.60485
207 2 -4.443 5.85033 6.68472
227 2 -5.65814 8.02049 6.60313
99 2 -2.99665 7.83453 11.3699
100 1 -3.06409 7.92583 10.2932
139 1 -3.05763 7.89742 7.68817
141 2 -3.05177 8.96612 7.82862
148 2 -3.06813 8.9738 10.0269
193 1 -3.09099 5.11497 8.22886
194 1 -3.11391 5.10395 9.77354
225 2 -3.0253 7.85658 6.60343
12 1 4.74978 7.83312 10.3498
35 1 3.44907 7.17591 8.27879
36 1 3.43385 7.19436 9.82707
46 1 2.12629 7.83678 10.3627
49 1 3.44031 5.70729 7.79153
50 1 3.46018 5.72334 10.3073
52 2 4.69872 8.89465 10.1495
54 1 -0.424705 7.89261 7.69453
55 1 0.858336 7.2158 8.24055
56 1 -1.74465 7.24801 8.19843
57 2 -0.339342 8.9464 7.91076
58 1 -0.480084 7.84147 10.3221
59 2 -0.462659 8.90333 10.1385
60 2 -0.425003 7.70584 11.3948
64 2 3.44432 5.68104 11.3898
71 1 0.831658 7.20684 9.78923
78 1 0.839481 5.7301 7.78743
79 1 0.821372 5.74233 10.2864
80 2 0.859423 5.70797 11.3642
90 1 2.17244 7.82645 7.6854
91 2 2.2048 8.89533 7.83101
92 2 2.12705 8.88188 10.1103
96 2 2.11608 7.79883 11.4387
111 1 4.763 7.80933 7.74541
112 2 4.78491 8.87455 7.92337
115 2 4.76338 7.75353 11.4295
121 1 -1.78636 7.22652 9.75169
125 1 -1.77072 5.7676 7.7455
126 1 -1.78596 5.75987 10.246
127 2 -1.78731 5.76236 11.3254
153 1 2.13972 5.06045 9.82786
164 1 4.76759 5.05084 9.81768
173 1 2.13255 5.03122 8.28086
177 1 4.76444 5.06603 8.26845
180 1 -0.483563 5.06125 8.25223
181 1 -0.4793 5.05062 9.80206
210 2 3.43198 5.74318 6.7092
212 2 2.107 7.73873 6.60992
213 2 4.73275 7.70892 6.66862
214 2 -0.380237 7.86271 6.61668
219 2 0.871065 5.65182 6.70671
226 2 -1.71607 5.74537 6.66493
11 1 6.06413 7.21559 9.82848
13 1 6.07612 5.73007 7.77489
14 1 6.08399 7.19621 8.27794
76 1 6.07011 5.73512 10.3004
77 2 6.00909 5.63033 11.378
202 2 6.00963 5.75979 6.69228
252 1 7.39267 5.06059 8.24017
253 1 8.65922 5.8313 7.77925
254 1 7.37264 5.06515 9.78805
255 1 8.63936 5.78852 10.32
283 1 12.4374 8.05665 7.77236
285 1 11.1758 7.30387 8.27911
286 2 12.4196 9.10132 8.04472
287 1 12.4435 7.98303 10.3952
288 2 12.4508 9.05462 10.2662
289 2 12.4614 7.90581 11.4725
322 2 9.88302 7.91803 11.494
323 1 9.8986 7.97963 10.408
341 1 11.1692 7.30421 9.83002
345 1 11.1816 5.84036 7.77109
346 1 11.1922 5.84115 10.3369
347 2 11.2121 5.80652 11.4185
359 1 9.91025 8.01763 7.74212
360 1 8.65017 7.29558 8.28773
361 2 9.98585 9.03943 8.08317
362 1 7.34118 7.9219 7.73922
363 2 7.33123 8.97203 8.00527
364 1 7.34584 7.89812 10.3642
365 2 7.22193 8.93918 10.1056
366 2 7.34621 7.85694 11.4433
367 2 9.8292 9.04662 10.214
383 1 8.65324 7.25753 9.83504
386 2 8.61516 5.76005 11.4
402 1 12.4572 5.10347 8.24938
403 1 12.4521 5.11136 9.79861
408 1 9.92216 5.10176 8.29651
409 1 9.93076 5.08878 9.8424
420 2 8.67976 5.83643 6.70188
427 2 12.4387 8.02024 6.68688
437 2 9.95386 7.95132 6.66394
438 2 11.1595 5.86644 6.68816
439 2 7.33831 7.91396 6.65939
284 1 13.6886 7.29884 8.27562
297 1 13.7066 7.28493 9.82594
304 1 13.7091 5.84874 7.73156
305 1 13.7294 5.81868 10.3244
306 2 13.7173 5.77971 11.4063
432 2 13.6558 5.81851 6.65417
241 1 18.7256 7.35757 9.80246
242 1 17.4419 8.02093 10.3578
243 2 19.5945 7.87573 10.1938
244 1 18.7216 5.87343 7.6871
245 1 18.7011 7.3181 8.2545
250 2 19.5693 7.78726 7.81315
260 1 16.1846 7.29164 8.2488
261 1 16.2143 7.26395 9.79604
272 1 14.9734 7.97589 10.3971
276 1 16.232 5.83669 7.71431
277 1 16.2254 5.8006 10.3003
279 2 17.4043 9.09471 10.2007
290 2 16.1903 5.77721 11.3797
302 1 18.7277 5.90793 10.3431
303 2 18.6231 5.92693 11.4207
314 1 14.9314 8.00579 7.68728
315 2 14.9947 9.04571 7.98627
316 2 14.9623 9.03976 10.201
319 2 15.0027 7.92385 11.477
332 1 17.4354 8.02495 7.71255
333 2 17.4597 9.0874 7.93312
336 2 17.4203 7.84633 11.4234
371 1 14.9672 5.07453 9.77002
375 2 19.6822 5.46353 7.9723
376 2 19.6944 5.44947 10.1774
385 1 17.517 5.11346 9.78618
395 1 14.9685 5.09312 8.21918
399 1 17.493 5.09869 8.23833
416 2 18.6917 5.88426 6.60497
423 2 16.1821 5.84801 6.63038
425 2 14.9409 7.94114 6.60474
426 2 17.452 7.93947 6.63665
ITEM: TIMESTEP
3000
ITEM: NUMBER OF ATOMS
442
ITEM: BOX BOUNDS ff ff ff
-1.0000000000000000e+02 1.0000000000000000e+02
-1.0000000000000000e+02 1.0000000000000000e+02
-1.0000000000000000e+02 1.0000000000000000e+02
ITEM: ATOMS id type x y z
137 2 -4.63464 -4.7096 10.1975
157 2 -4.63052 -4.69716 7.80896
154 2 -2.14698 -4.6261 7.84162
161 2 -2.10758 -4.63857 10.1481
47 2 2.88809 -4.69654 7.77532
113 2 0.305298 -4.64229 7.86119
128 2 2.90257 -4.72089 10.0877
174 2 0.307505 -4.675 10.086
97 2 5.42989 -4.69322 7.7589
98 2 5.44662 -4.72741 10.0468
357 2 8.0163 -4.72617 10.0422
372 2 10.5264 -4.70788 7.82476
377 2 7.9513 -4.66646 7.76182
382 2 10.4844 -4.72507 10.0839
334 2 13.0606 -4.73544 7.76228
396 2 12.9605 -4.73311 10.1205
274 2 15.5497 -4.74314 7.7576
320 2 18.0424 -4.76395 7.81904
321 2 18.013 -4.76989 10.1042
348 2 15.5561 -4.76478 10.0516
8 1 -3.41045 1.43945 7.70279
20 2 -6.86014 1.01427 7.89342
21 1 -5.89974 1.46582 7.67501
22 2 -6.86517 1.04301 10.1028
23 1 -5.89969 1.4658 10.3436
30 1 -4.66683 3.67613 7.72987
31 1 -3.40836 2.90411 8.22418
32 1 -5.91531 2.91035 8.23466
33 1 -4.66676 3.67613 10.2886
34 2 -4.68844 3.68341 11.3701
40 1 -4.67206 0.7038 9.78401
41 1 -3.41119 1.45355 10.2995
45 1 -4.67208 0.703793 8.23457
51 1 -3.41268 2.91363 9.77926
53 2 -3.3914 1.47518 11.3804
63 2 -6.7997 3.36026 7.80557
81 1 -5.91527 2.91035 9.78399
82 2 -6.8079 3.32524 10.2412
93 2 -5.85306 1.50544 11.4241
109 2 -6.7953 -3.54023 10.1037
110 1 -5.89859 -2.98638 10.3446
117 1 -4.64671 -3.70574 8.23474
118 1 -5.89868 -2.98629 7.67413
119 1 -3.42356 -2.91654 7.69436
120 1 -4.64672 -3.7058 9.78376
122 1 -3.40757 -2.93114 10.3171
131 1 -3.39284 -1.46653 8.23204
151 1 -5.91627 -1.54208 8.23477
152 1 -5.91625 -1.54216 9.78398