LAMMPS data file -- atom_style full -- generated by chemfiles
442 atoms
599 bonds
1512 angles
3681 dihedrals
1008 impropers
2 atom types
2 bond types
3 angle types
3 dihedral types
3 improper types
-100.00 100.00 xlo xhi
-100.00 100.00 ylo yhi
-100.00 100.00 zlo zhi

# Pair Coeffs
# 1 C
# 2 H

# Bond Coeffs
# 1 C-C
# 2 C-H

# Angle Coeffs
# 1 C-C-C
# 2 C-C-H
# 3 H-C-H

# Dihedrals Coeffs
# 1 C-C-C-C
# 2 C-C-C-H
# 3 H-C-C-H

# Impropers Coeffs
# 1 C-C-C-C
# 2 C-C-C-H
# 3 C-C-H-H

Masses

1 12.011 # C
2 1.008 # H

Atoms # full

1 1 1 0.0 -0.012000000000000002 0.7060000000000001 8.224000000000002 # C
2 1 1 0.0 -1.2830000000000001 1.4480000000000002 7.718000000000001 # C
3 1 1 0.0 1.2580000000000002 1.4440000000000004 7.718000000000001 # C
4 1 1 0.0 -0.012000000000000002 0.7060000000000001 9.795000000000002 # C
5 1 1 0.0 -1.2830000000000001 1.4480000000000002 10.301000000000002 # C
6 1 1 0.0 1.2580000000000002 1.4440000000000004 10.301000000000002 # C
7 1 1 0.0 -5.104000000000001 0.7060000000000001 8.226000000000003 # C
8 1 1 0.0 -6.382000000000001 1.4430000000000005 7.724000000000001 # C
9 1 1 0.0 -3.829000000000001 1.4480000000000002 7.719000000000001 # C
10 1 1 0.0 -5.104000000000001 0.7060000000000001 9.793000000000001 # C
11 1 1 0.0 3.8000000000000007 7.3580000000000005 9.802000000000001 # C
12 1 1 0.0 2.5340000000000003 8.064000000000002 10.359000000000004 # C
13 1 1 0.0 3.798000000000001 5.872000000000002 7.722000000000002 # C
14 1 1 0.0 3.8000000000000007 7.3580000000000005 8.217000000000002 # C
15 1 1 0.0 -3.829000000000001 2.9260000000000006 8.225000000000001 # C
16 1 1 0.0 -3.829000000000001 2.9260000000000006 9.794000000000002 # C
17 1 1 0.0 -5.104000000000001 3.668000000000001 10.299000000000001 # C
18 1 1 0.0 -2.5540000000000003 3.665000000000001 10.299000000000001 # C
19 1 1 0.0 -3.829000000000001 1.4480000000000002 10.299000000000001 # C
20 1 2 0.0 -9.840000000000002 0.9880000000000002 7.8900000000000015 # H
21 1 1 0.0 -8.901000000000002 1.4710000000000005 7.655000000000001 # C
22 1 2 0.0 -9.840000000000002 0.9880000000000002 10.129000000000001 # H
23 1 1 0.0 -8.901000000000002 1.4710000000000005 10.364000000000003 # C
24 1 1 0.0 -7.673000000000001 5.1610000000000005 8.222000000000001 # C
25 1 1 0.0 -8.910000000000002 5.948000000000002 7.6640000000000015 # C
26 1 1 0.0 -6.377000000000001 5.8900000000000015 7.727000000000002 # C
27 1 1 0.0 -7.672000000000001 5.1610000000000005 9.797000000000002 # C
28 1 1 0.0 -8.910000000000002 5.948000000000002 10.355000000000002 # C
29 1 1 0.0 -6.377000000000001 5.8900000000000015 10.291000000000004 # C
30 1 1 0.0 -7.666000000000002 3.678000000000001 7.716000000000002 # C
31 1 1 0.0 -6.384000000000002 2.931000000000001 8.223000000000003 # C
32 1 1 0.0 -8.921000000000001 2.9070000000000005 8.225000000000001 # C
33 1 1 0.0 -7.666000000000002 3.678000000000001 10.302000000000003 # C
34 1 2 0.0 -7.665000000000002 3.6800000000000006 11.384000000000004 # H
35 1 1 0.0 1.2640000000000002 7.364000000000001 8.217000000000002 # C
36 1 1 0.0 1.2640000000000002 7.364000000000001 9.802000000000001 # C
37 1 1 0.0 3.7910000000000004 -1.5210000000000001 8.222000000000001 # C
38 1 1 0.0 3.7910000000000004 -1.5210000000000001 9.797000000000002 # C
39 1 1 0.0 2.5250000000000004 -0.7750000000000001 10.302000000000003 # C
40 1 1 0.0 -7.669000000000001 0.6980000000000001 9.798000000000002 # C
41 1 1 0.0 -6.382000000000001 1.4430000000000005 10.295000000000002 # C
42 1 1 0.0 3.789000000000001 -2.999000000000001 7.712000000000001 # C
43 1 1 0.0 3.789000000000001 -2.999000000000001 10.307000000000002 # C
44 1 2 0.0 3.790000000000001 -3.0100000000000007 11.389000000000001 # H
45 1 1 0.0 -7.669000000000001 0.6980000000000001 8.221000000000002 # C
46 1 1 0.0 -0.0030000000000000005 8.069000000000003 10.359000000000004 # C
47 1 2 0.0 -0.013000000000000003 -4.734000000000001 7.862000000000002 # H
48 1 1 0.0 -0.013000000000000003 -3.716000000000001 8.228000000000002 # C
49 1 1 0.0 1.2620000000000002 5.878000000000001 7.722000000000002 # C
50 1 1 0.0 1.2620000000000002 5.878000000000001 10.297000000000002 # C
51 1 1 0.0 -6.384000000000002 2.931000000000001 9.795000000000002 # C
52 1 2 0.0 2.5370000000000004 9.119000000000002 10.119000000000002 # H
53 1 2 0.0 -6.370000000000001 1.4440000000000004 11.377000000000002 # H
54 1 1 0.0 -2.5430000000000006 8.070000000000002 7.660000000000002 # C
55 1 1 0.0 -1.2740000000000002 7.367000000000002 8.217000000000002 # C
56 1 1 0.0 -3.817000000000001 7.370000000000001 8.217000000000002 # C
57 1 2 0.0 -2.5390000000000006 9.125000000000002 7.899000000000001 # H
58 1 1 0.0 -2.5430000000000006 8.070000000000002 10.359000000000004 # C
59 1 2 0.0 -2.5390000000000006 9.125000000000002 10.120000000000001 # H
60 1 2 0.0 -2.5410000000000004 8.019000000000002 11.440000000000003 # H
61 1 2 0.0 -9.851000000000003 5.475000000000001 7.912000000000002 # H
62 1 2 0.0 -9.851000000000003 5.475000000000001 10.107000000000001 # H
63 1 2 0.0 -9.826000000000002 3.374000000000001 7.8610000000000015 # H
64 1 2 0.0 1.2630000000000001 5.8660000000000005 11.378000000000002 # H
65 1 1 0.0 1.2560000000000002 -1.5140000000000005 8.222000000000001 # C
66 1 1 0.0 1.2560000000000002 -1.5140000000000005 9.797000000000002 # C
67 1 1 0.0 -0.012000000000000002 -0.7690000000000002 10.302000000000003 # C
68 1 1 0.0 1.2550000000000001 -2.9920000000000004 7.712000000000001 # C
69 1 1 0.0 1.2550000000000001 -2.9920000000000004 10.307000000000002 # C
70 1 2 0.0 1.2560000000000002 -3.0030000000000006 11.389000000000001 # H
71 1 1 0.0 -1.2740000000000002 7.367000000000002 9.802000000000001 # C
72 1 1 0.0 2.5250000000000004 -0.7750000000000001 7.716000000000002 # C
73 1 1 0.0 2.5250000000000004 0.7010000000000001 8.224000000000002 # C
74 1 1 0.0 2.5250000000000004 0.7010000000000001 9.795000000000002 # C
75 1 2 0.0 2.5250000000000004 -0.7730000000000001 11.384000000000004 # H
76 1 1 0.0 3.798000000000001 5.872000000000002 10.297000000000002 # C
77 1 2 0.0 3.798000000000001 5.860000000000001 11.379000000000001 # H
78 1 1 0.0 -1.2780000000000002 5.881000000000001 7.723000000000001 # C
79 1 1 0.0 -1.2780000000000002 5.881000000000001 10.296000000000001 # C
80 1 2 0.0 -1.2760000000000002 5.869000000000001 11.378000000000002 # H
81 1 1 0.0 -8.921000000000001 2.9070000000000005 9.794000000000002 # C
82 1 2 0.0 -9.826000000000002 3.374000000000001 10.158000000000001 # H
83 1 1 0.0 -2.5530000000000004 -0.7670000000000001 7.7170000000000005 # C
84 1 1 0.0 -1.282 -1.5090000000000001 8.222000000000001 # C
85 1 1 0.0 -3.8250000000000006 -1.5090000000000001 8.222000000000001 # C
86 1 1 0.0 -2.5550000000000006 0.7090000000000001 8.224000000000002 # C
87 1 1 0.0 -2.5530000000000004 -0.7670000000000001 10.302000000000003 # C
88 1 1 0.0 -2.5550000000000006 0.7090000000000001 9.794000000000002 # C
89 1 2 0.0 -2.5500000000000003 -0.7650000000000001 11.384000000000004 # H
90 1 1 0.0 -0.0030000000000000005 8.069000000000003 7.660000000000002 # C
91 1 2 0.0 -0.0010000000000000002 9.124000000000002 7.900000000000001 # H
92 1 2 0.0 -0.0010000000000000002 9.124000000000002 10.119000000000002 # H
93 1 2 0.0 -8.850000000000001 1.5040000000000004 11.444000000000003 # H
94 1 1 0.0 2.5210000000000004 -3.7220000000000004 8.228000000000002 # C
95 1 1 0.0 2.5210000000000004 -3.7220000000000004 9.791000000000002 # C
96 1 2 0.0 -0.0020000000000000005 8.019000000000002 11.440000000000003 # H
97 1 2 0.0 2.5190000000000006 -4.740000000000001 7.862000000000002 # H
98 1 2 0.0 2.5190000000000006 -4.740000000000001 10.157000000000002 # H
99 1 2 0.0 -5.082000000000001 8.022000000000002 11.440000000000003 # H
100 1 1 0.0 -5.085000000000001 8.075000000000001 10.360000000000001 # C
101 1 1 0.0 -2.5480000000000005 -3.713000000000001 8.228000000000002 # C
102 1 1 0.0 -3.8190000000000004 -2.988000000000001 7.712000000000001 # C
103 1 1 0.0 -1.2800000000000002 -2.9870000000000005 7.712000000000001 # C
104 1 1 0.0 -2.5480000000000005 -3.713000000000001 9.791000000000002 # C
105 1 1 0.0 -3.8190000000000004 -2.988000000000001 10.306000000000001 # C
106 1 1 0.0 -1.2800000000000002 -2.9870000000000005 10.307000000000002 # C
107 1 1 0.0 -1.282 2.9240000000000004 8.224000000000002 # C
108 1 1 0.0 -1.282 2.9240000000000004 9.794000000000002 # C
109 1 2 0.0 -9.795000000000002 -3.551000000000001 10.132000000000001 # H
110 1 1 0.0 -8.885000000000002 -3.0150000000000006 10.366000000000001 # C
111 1 1 0.0 2.5340000000000003 8.065000000000001 7.659000000000002 # C
112 1 2 0.0 2.5370000000000004 9.119000000000002 7.900000000000001 # H
113 1 2 0.0 -2.5450000000000004 -4.731000000000001 7.863000000000002 # H
114 1 1 0.0 -1.282 -1.5090000000000001 9.797000000000002 # C
115 1 2 0.0 2.5340000000000003 8.014000000000001 11.440000000000003 # H
116 1 2 0.0 -1.2780000000000002 -2.9980000000000007 11.389000000000001 # H
117 1 1 0.0 -7.638000000000001 -3.7420000000000004 8.223000000000003 # C
118 1 1 0.0 -8.885000000000002 -3.0150000000000006 7.653000000000001 # C
119 1 1 0.0 -6.363000000000002 -3.0030000000000006 7.715000000000002 # C
120 1 1 0.0 -7.638000000000001 -3.7420000000000004 9.795000000000002 # C
121 1 1 0.0 -3.817000000000001 7.370000000000001 9.802000000000001 # C
122 1 1 0.0 -6.363000000000002 -3.0030000000000006 10.304000000000002 # C
123 1 1 0.0 -0.012000000000000002 -0.7690000000000002 7.716000000000002 # C
124 1 2 0.0 -0.010000000000000002 -0.7670000000000001 11.384000000000004 # H
125 1 1 0.0 -3.823000000000001 5.883000000000001 7.723000000000001 # C
126 1 1 0.0 -3.823000000000001 5.883000000000001 10.295000000000002 # C
127 1 2 0.0 -3.8200000000000007 5.871000000000001 11.377000000000002 # H
128 1 2 0.0 -0.013000000000000003 -4.734000000000001 10.156000000000002 # H
129 1 1 0.0 -0.013000000000000003 -3.716000000000001 9.791000000000002 # C
130 1 1 0.0 -5.102000000000001 -0.7710000000000002 7.7170000000000005 # C
131 1 1 0.0 -6.377000000000001 -1.5170000000000001 8.221000000000002 # C
132 1 1 0.0 -5.102000000000001 -0.7710000000000002 10.301000000000002 # C
133 1 2 0.0 -5.097000000000001 -0.7670000000000001 11.383000000000001 # H
134 1 1 0.0 3.795000000000001 2.914000000000001 8.224000000000002 # C
135 1 1 0.0 3.795000000000001 2.914000000000001 9.795000000000002 # C
136 1 2 0.0 1.2590000000000001 1.4450000000000003 11.383000000000001 # H
137 1 2 0.0 -7.629000000000001 -4.761000000000001 10.159000000000002 # H
138 1 1 0.0 -5.086000000000001 -3.7190000000000003 9.790000000000001 # C
139 1 1 0.0 -5.085000000000001 8.075000000000001 7.659000000000002 # C
140 1 1 0.0 -6.364000000000001 7.384000000000002 8.216000000000001 # C
141 1 2 0.0 -5.077000000000001 9.131000000000002 7.896000000000002 # H
142 1 1 0.0 -7.633000000000001 8.103000000000002 7.660000000000002 # C
143 1 1 0.0 -8.901000000000002 7.400000000000001 8.220000000000002 # C
144 1 2 0.0 -7.630000000000002 9.157000000000002 7.903000000000001 # H
145 1 1 0.0 -7.633000000000001 8.102000000000002 10.358000000000002 # C
146 1 2 0.0 -7.630000000000002 9.157000000000002 10.116000000000001 # H
147 1 2 0.0 -7.636000000000002 8.055000000000001 11.439000000000004 # H
148 1 2 0.0 -5.077000000000001 9.131000000000002 10.123000000000001 # H
149 1 1 0.0 -5.086000000000001 -3.7190000000000003 8.229000000000001 # C
150 1 1 0.0 2.5280000000000005 3.658000000000001 10.300000000000002 # C
151 1 1 0.0 -8.922000000000002 -1.5720000000000005 8.224000000000002 # C
152 1 1 0.0 -8.922000000000002 -1.5720000000000005 9.795000000000002 # C
153 1 1 0.0 -0.009000000000000001 5.139000000000001 9.792000000000002 # C
154 1 2 0.0 -5.078000000000001 -4.738000000000001 7.864000000000002 # H
155 1 2 0.0 3.7940000000000005 1.4380000000000002 11.383000000000001 # H
156 1 1 0.0 3.795000000000001 1.4380000000000002 10.301000000000002 # C
157 1 2 0.0 -7.629000000000001 -4.761000000000001 7.859000000000001 # H
158 1 1 0.0 -3.8250000000000006 -1.5090000000000001 9.796000000000001 # C
159 1 2 0.0 -3.8160000000000003 -2.999000000000001 11.388000000000002 # H
160 1 1 0.0 1.2580000000000002 2.9200000000000004 9.795000000000002 # C
161 1 2 0.0 -5.078000000000001 -4.738000000000001 10.155000000000001 # H
162 1 1 0.0 -6.364000000000001 7.384000000000002 9.802000000000001 # C
163 1 1 0.0 -6.377000000000001 -1.5170000000000001 9.798000000000002 # C
164 1 1 0.0 2.5290000000000004 5.134000000000002 9.793000000000001 # C
165 1 2 0.0 -6.3660000000000005 5.878000000000001 11.373000000000001 # H
166 1 1 0.0 3.795000000000001 1.4380000000000002 7.718000000000001 # C
167 1 1 0.0 -7.666000000000002 -0.7840000000000003 7.716000000000002 # C
168 1 1 0.0 -7.666000000000002 -0.7840000000000003 10.302000000000003 # C
169 1 2 0.0 -7.665000000000002 -0.7780000000000001 11.384000000000004 # H
170 1 2 0.0 -9.780000000000001 7.917000000000001 7.860000000000001 # H
171 1 1 0.0 -0.011000000000000001 3.6630000000000003 7.719000000000001 # C
172 1 1 0.0 1.2580000000000002 2.9200000000000004 8.224000000000002 # C
173 1 1 0.0 -0.009000000000000001 5.139000000000001 8.226000000000003 # C
174 1 2 0.0 -2.5450000000000004 -4.731000000000001 10.156000000000002 # H
175 1 1 0.0 -0.011000000000000001 3.6630000000000003 10.300000000000002 # C
176 1 2 0.0 -0.009000000000000001 3.662000000000001 11.382000000000003 # H
177 1 1 0.0 2.5290000000000004 5.134000000000002 8.226000000000003 # C
178 1 2 0.0 -6.353000000000001 -3.0120000000000005 11.386000000000001 # H
179 1 1 0.0 2.5280000000000005 3.658000000000001 7.718000000000001 # C
180 1 1 0.0 -2.5510000000000006 5.142000000000001 8.226000000000003 # C
181 1 1 0.0 -2.5510000000000006 5.142000000000001 9.792000000000002 # C
182 1 1 0.0 -8.901000000000002 7.400000000000001 9.798000000000002 # C
183 1 2 0.0 -9.780000000000001 7.917000000000001 10.159000000000002 # H
184 1 2 0.0 2.5280000000000005 3.6570000000000005 11.382000000000003 # H
185 1 1 0.0 -2.5540000000000003 3.665000000000001 7.719000000000001 # C
186 1 2 0.0 -2.5500000000000003 3.664000000000001 11.381000000000002 # H
187 1 2 0.0 -8.873000000000001 5.961000000000001 11.436000000000002 # H
188 1 2 0.0 -9.830000000000002 -1.1110000000000002 7.859000000000001 # H
189 1 2 0.0 -9.795000000000002 -3.551000000000001 7.8870000000000005 # H
190 1 2 0.0 -1.2800000000000002 1.4490000000000003 11.383000000000001 # H
191 1 2 0.0 -9.830000000000002 -1.1110000000000002 10.160000000000002 # H
192 1 2 0.0 -8.832000000000003 -2.9800000000000004 11.446000000000002 # H
193 1 1 0.0 -5.101000000000001 5.145000000000001 8.227000000000002 # C
194 1 1 0.0 -5.101000000000001 5.145000000000001 9.791000000000002 # C
195 1 1 0.0 -5.104000000000001 3.668000000000001 7.719000000000001 # C
196 1 2 0.0 -5.099000000000001 3.6670000000000007 11.381000000000002 # H
197 1 2 0.0 -1.2800000000000002 1.4490000000000003 6.636000000000002 # H
198 1 2 0.0 1.2590000000000001 1.4450000000000003 6.636000000000002 # H
199 1 2 0.0 -8.873000000000001 5.961000000000001 6.582000000000001 # H
200 1 2 0.0 -6.370000000000001 1.4440000000000004 6.642000000000002 # H
201 1 2 0.0 -3.8250000000000006 1.4490000000000003 6.6370000000000005 # H
202 1 2 0.0 3.798000000000001 5.860000000000001 6.6400000000000015 # H
203 1 2 0.0 -5.099000000000001 3.6670000000000007 6.6370000000000005 # H
204 1 2 0.0 -2.5500000000000003 3.664000000000001 6.6370000000000005 # H
205 1 2 0.0 -8.850000000000001 1.5040000000000004 6.574000000000001 # H
206 1 2 0.0 -7.665000000000002 -0.7780000000000001 6.634000000000002 # H
207 1 2 0.0 -6.367000000000002 5.878000000000001 6.646000000000002 # H
208 1 2 0.0 -7.665000000000002 3.6800000000000006 6.634000000000002 # H
209 1 2 0.0 2.5250000000000004 -0.7730000000000001 6.634000000000002 # H
210 1 2 0.0 1.2630000000000001 5.8660000000000005 6.6400000000000015 # H
211 1 2 0.0 3.790000000000001 -3.0100000000000007 6.630000000000002 # H
212 1 2 0.0 -0.0020000000000000005 8.019000000000002 6.579000000000001 # H
213 1 2 0.0 2.5340000000000003 8.015000000000002 6.579000000000001 # H
214 1 2 0.0 -2.5410000000000004 8.019000000000002 6.579000000000001 # H
215 1 2 0.0 -5.097000000000001 -0.7670000000000001 6.635000000000002 # H
216 1 2 0.0 -2.5500000000000003 -0.7650000000000001 6.635000000000002 # H
217 1 2 0.0 -0.010000000000000002 -0.7670000000000001 6.634000000000002 # H
218 1 2 0.0 1.2560000000000002 -3.0030000000000006 6.630000000000002 # H
219 1 2 0.0 -1.2760000000000002 5.869000000000001 6.641000000000002 # H
220 1 2 0.0 -0.009000000000000001 3.662000000000001 6.6370000000000005 # H
221 1 2 0.0 -3.8160000000000003 -2.999000000000001 6.630000000000002 # H
222 1 2 0.0 -1.2780000000000002 -2.9980000000000007 6.630000000000002 # H
223 1 2 0.0 -8.832000000000003 -2.9800000000000004 6.573000000000002 # H
224 1 2 0.0 -6.353000000000001 -3.0120000000000005 6.633000000000001 # H
225 1 2 0.0 -5.082000000000001 8.022000000000002 6.578000000000002 # H
226 1 2 0.0 -3.8200000000000007 5.871000000000001 6.642000000000002 # H
227 1 2 0.0 -7.636000000000002 8.055000000000001 6.579000000000001 # H
228 1 2 0.0 2.5280000000000005 3.6570000000000005 6.636000000000002 # H
229 1 2 0.0 3.7940000000000005 1.4380000000000002 6.636000000000002 # H
230 1 2 0.0 -3.8250000000000006 1.4490000000000003 11.381000000000002 # H
231 1 1 0.0 12.693000000000001 0.6760000000000003 8.226000000000003 # C
232 1 1 0.0 11.419000000000002 1.4200000000000004 7.719000000000001 # C
233 1 1 0.0 13.972000000000003 1.4130000000000005 7.724000000000001 # C
234 1 1 0.0 12.693000000000001 0.6760000000000003 9.793000000000001 # C
235 1 1 0.0 11.419000000000002 1.4200000000000004 10.299000000000001 # C
236 1 1 0.0 13.972000000000003 1.4130000000000005 10.295000000000002 # C
237 1 1 0.0 7.600000000000001 0.6880000000000001 8.224000000000002 # C
238 1 1 0.0 6.332000000000001 1.4310000000000003 7.718000000000001 # C
239 1 1 0.0 8.872000000000002 1.4250000000000003 7.718000000000001 # C
240 1 1 0.0 7.600000000000001 0.6880000000000001 9.795000000000002 # C
241 1 1 0.0 16.493000000000002 7.3690000000000015 9.798000000000002 # C
242 1 1 0.0 15.226000000000004 8.072000000000001 10.359000000000004 # C
243 1 2 0.0 17.373000000000005 7.886000000000002 10.159000000000002 # H
244 1 1 0.0 16.502000000000002 5.916000000000001 7.6640000000000015 # C
245 1 1 0.0 16.493000000000002 7.3690000000000015 8.220000000000002 # C
246 1 1 0.0 8.873000000000001 2.9010000000000002 8.224000000000002 # C
247 1 1 0.0 8.873000000000001 2.9010000000000002 9.794000000000002 # C
248 1 1 0.0 7.603000000000001 3.644000000000001 10.300000000000002 # C
249 1 1 0.0 10.145000000000001 3.6390000000000007 10.300000000000002 # C
250 1 2 0.0 17.373000000000005 7.886000000000002 7.860000000000001 # H
251 1 1 0.0 8.872000000000002 1.4250000000000003 10.300000000000002 # C
252 1 1 0.0 5.065000000000001 5.127000000000001 8.226000000000003 # C
253 1 1 0.0 6.334000000000001 5.865000000000001 7.722000000000002 # C
254 1 1 0.0 5.065000000000001 5.127000000000001 9.793000000000001 # C
255 1 1 0.0 6.334000000000001 5.865000000000001 10.297000000000002 # C
256 1 1 0.0 5.064000000000001 3.6510000000000002 7.718000000000001 # C
257 1 1 0.0 6.332000000000001 2.9070000000000005 8.224000000000002 # C
258 1 1 0.0 5.064000000000001 3.6510000000000002 10.300000000000002 # C
259 1 2 0.0 5.063000000000001 3.650000000000001 11.382000000000003 # H
260 1 1 0.0 13.957000000000003 7.353000000000001 8.216000000000001 # C
261 1 1 0.0 13.957000000000003 7.353000000000001 9.802000000000001 # C
262 1 1 0.0 16.511000000000003 -1.6030000000000004 8.224000000000002 # C
263 1 1 0.0 16.511000000000003 -1.6030000000000004 9.795000000000002 # C
264 1 1 0.0 15.255000000000003 -0.8150000000000002 10.302000000000003 # C
265 1 2 0.0 17.419000000000004 -1.1420000000000001 10.160000000000002 # H
266 1 1 0.0 5.062000000000001 0.6940000000000001 9.795000000000002 # C
267 1 1 0.0 6.332000000000001 1.4310000000000003 10.301000000000002 # C
268 1 1 0.0 16.474000000000004 -3.0470000000000006 7.653000000000001 # C
269 1 1 0.0 16.474000000000004 -3.0470000000000006 10.366000000000001 # C
270 1 2 0.0 16.421000000000003 -3.011000000000001 11.446000000000002 # H
271 1 1 0.0 5.062000000000001 0.6940000000000001 8.224000000000002 # C
272 1 1 0.0 12.679000000000004 8.045000000000002 10.360000000000001 # C
273 1 2 0.0 17.419000000000004 -1.1420000000000001 7.859000000000001 # H
274 1 2 0.0 12.664000000000001 -4.767000000000001 7.864000000000002 # H
275 1 1 0.0 12.672000000000002 -3.749000000000001 8.229000000000001 # C
276 1 1 0.0 13.969000000000001 5.860000000000001 7.727000000000002 # C
277 1 1 0.0 13.969000000000001 5.860000000000001 10.291000000000004 # C
278 1 1 0.0 6.332000000000001 2.9070000000000005 9.795000000000002 # C
279 1 2 0.0 15.222000000000003 9.126000000000001 10.116000000000001 # H
280 1 2 0.0 6.330000000000001 1.4310000000000003 11.383000000000001 # H
281 1 2 0.0 17.384000000000004 -3.5830000000000006 7.8870000000000005 # H
282 1 2 0.0 17.384000000000004 -3.5830000000000006 10.131000000000002 # H
283 1 1 0.0 10.140000000000002 8.043000000000001 7.659000000000002 # C
284 1 1 0.0 11.412000000000003 7.341000000000002 8.217000000000002 # C
285 1 1 0.0 8.872000000000002 7.343000000000001 8.217000000000002 # C
286 1 2 0.0 10.138000000000002 9.099000000000002 7.8980000000000015 # H
287 1 1 0.0 10.140000000000002 8.043000000000001 10.359000000000004 # C
288 1 2 0.0 10.138000000000002 9.099000000000002 10.121000000000002 # H
289 1 2 0.0 10.137000000000002 7.992000000000002 11.440000000000003 # H
290 1 2 0.0 13.959000000000001 5.847000000000001 11.373000000000001 # H
291 1 1 0.0 13.965000000000003 -1.5470000000000002 8.221000000000002 # C
292 1 1 0.0 13.965000000000003 -1.5470000000000002 9.798000000000002 # C
293 1 1 0.0 12.690000000000003 -0.8010000000000003 10.301000000000002 # C
294 1 1 0.0 13.951000000000004 -3.033000000000001 7.715000000000002 # C
295 1 1 0.0 13.951000000000004 -3.033000000000001 10.303000000000004 # C
296 1 2 0.0 13.941000000000004 -3.0420000000000003 11.385000000000002 # H
297 1 1 0.0 11.412000000000003 7.341000000000002 9.802000000000001 # C
298 1 1 0.0 15.255000000000003 -0.8150000000000002 7.716000000000002 # C
299 1 1 0.0 15.259000000000004 0.6670000000000001 8.221000000000002 # C
300 1 1 0.0 15.259000000000004 0.6670000000000001 9.798000000000002 # C
301 1 2 0.0 15.255000000000003 -0.8090000000000002 11.384000000000004 # H
302 1 1 0.0 16.502000000000002 5.916000000000001 10.355000000000002 # C
303 1 2 0.0 16.464000000000002 5.929000000000001 11.436000000000002 # H
304 1 1 0.0 11.417000000000003 5.854000000000001 7.723000000000001 # C
305 1 1 0.0 11.417000000000003 5.854000000000001 10.295000000000002 # C
306 1 2 0.0 11.413000000000002 5.8420000000000005 11.377000000000002 # H
307 1 1 0.0 10.140000000000002 -0.7930000000000001 7.7170000000000005 # C
308 1 1 0.0 11.412000000000003 -1.5380000000000005 8.222000000000001 # C
309 1 1 0.0 8.867000000000003 -1.5320000000000003 8.222000000000001 # C
310 1 1 0.0 10.143000000000002 0.6830000000000003 8.224000000000002 # C
311 1 1 0.0 10.140000000000002 -0.7930000000000001 10.302000000000003 # C
312 1 1 0.0 10.143000000000002 0.6830000000000003 9.794000000000002 # C
313 1 2 0.0 10.137000000000002 -0.7920000000000001 11.384000000000004 # H
314 1 1 0.0 12.679000000000004 8.045000000000002 7.659000000000002 # C
315 1 2 0.0 12.671000000000001 9.101000000000003 7.896000000000002 # H
316 1 2 0.0 12.671000000000001 9.101000000000003 10.123000000000001 # H
317 1 1 0.0 15.226000000000004 -3.773000000000001 8.223000000000003 # C
318 1 1 0.0 15.226000000000004 -3.773000000000001 9.795000000000002 # C
319 1 2 0.0 12.676000000000002 7.992000000000002 11.441000000000004 # H
320 1 2 0.0 15.217000000000004 -4.792000000000001 7.860000000000001 # H
321 1 2 0.0 15.217000000000004 -4.792000000000001 10.159000000000002 # H
322 1 2 0.0 7.602000000000002 7.997000000000002 11.440000000000003 # H
323 1 1 0.0 7.604000000000001 8.049000000000001 10.360000000000001 # C
324 1 1 0.0 10.131000000000002 -3.7390000000000003 8.228000000000002 # C
325 1 1 0.0 8.863000000000001 -3.011000000000001 7.712000000000001 # C
326 1 1 0.0 11.405000000000003 -3.0170000000000003 7.713000000000001 # C
327 1 1 0.0 10.131000000000002 -3.7390000000000003 9.790000000000001 # C
328 1 1 0.0 8.863000000000001 -3.011000000000001 10.307000000000002 # C
329 1 1 0.0 11.405000000000003 -3.0170000000000003 10.306000000000001 # C
330 1 1 0.0 11.420000000000002 2.8970000000000002 8.225000000000001 # C
331 1 1 0.0 11.420000000000002 2.8970000000000002 9.794000000000002 # C
332 1 1 0.0 15.226000000000004 8.072000000000001 7.660000000000002 # C
333 1 2 0.0 15.223000000000004 9.126000000000001 7.903000000000001 # H
334 1 2 0.0 10.126000000000001 -4.757000000000001 7.863000000000002 # H
335 1 1 0.0 11.412000000000003 -1.5380000000000005 9.796000000000001 # C
336 1 2 0.0 15.228000000000003 8.024000000000001 11.439000000000004 # H
337 1 2 0.0 11.402000000000001 -3.028000000000001 11.388000000000002 # H
338 1 1 0.0 5.055000000000001 -3.729000000000001 8.228000000000002 # C
339 1 1 0.0 6.325000000000001 -3.0060000000000002 7.712000000000001 # C
340 1 1 0.0 5.055000000000001 -3.729000000000001 9.791000000000002 # C
341 1 1 0.0 8.872000000000002 7.343000000000001 9.802000000000001 # C
342 1 1 0.0 6.325000000000001 -3.0060000000000002 10.307000000000002 # C
343 1 1 0.0 12.690000000000003 -0.8010000000000003 7.718000000000001 # C
344 1 2 0.0 12.686000000000002 -0.7980000000000003 11.383000000000001 # H
345 1 1 0.0 8.873000000000001 5.8580000000000005 7.722000000000002 # C
346 1 1 0.0 8.873000000000001 5.8580000000000005 10.296000000000001 # C
347 1 2 0.0 8.870000000000001 5.8450000000000015 11.378000000000002 # H
348 1 2 0.0 12.664000000000001 -4.767000000000001 10.155000000000001 # H
349 1 1 0.0 12.672000000000002 -3.749000000000001 9.789000000000001 # C
350 1 1 0.0 7.598000000000001 -0.7880000000000001 7.716000000000002 # C
351 1 1 0.0 6.328000000000002 -1.5270000000000001 8.222000000000001 # C
352 1 1 0.0 7.598000000000001 -0.7880000000000001 10.302000000000003 # C
353 1 2 0.0 7.596000000000002 -0.7870000000000001 11.384000000000004 # H
354 1 1 0.0 16.511000000000003 2.8750000000000004 8.225000000000001 # C
355 1 1 0.0 16.511000000000003 2.8750000000000004 9.794000000000002 # C
356 1 2 0.0 13.960000000000003 1.4130000000000005 11.377000000000002 # H
357 1 2 0.0 5.0520000000000005 -4.747000000000001 10.156000000000002 # H
358 1 1 0.0 7.5920000000000005 -3.7350000000000008 9.791000000000002 # C
359 1 1 0.0 7.604000000000001 8.049000000000001 7.659000000000002 # C
360 1 1 0.0 6.335000000000001 7.350000000000001 8.217000000000002 # C
361 1 2 0.0 7.605000000000001 9.104000000000001 7.8980000000000015 # H
362 1 1 0.0 5.069000000000001 8.057000000000002 7.659000000000002 # C
363 1 2 0.0 5.072000000000001 9.112000000000002 7.8980000000000015 # H
364 1 1 0.0 5.069000000000001 8.057000000000002 10.360000000000001 # C
365 1 2 0.0 5.072000000000001 9.112000000000002 10.120000000000001 # H
366 1 2 0.0 5.0680000000000005 8.005000000000003 11.441000000000004 # H
367 1 2 0.0 7.605000000000001 9.104000000000001 10.121000000000002 # H
368 1 1 0.0 7.5920000000000005 -3.7350000000000008 8.228000000000002 # C
369 1 1 0.0 15.257000000000003 3.6470000000000007 10.302000000000003 # C
370 1 2 0.0 17.417000000000005 3.3420000000000005 10.158000000000001 # H
371 1 1 0.0 12.694000000000003 5.115000000000001 9.791000000000002 # C
372 1 2 0.0 7.588000000000001 -4.753000000000001 7.863000000000002 # H
373 1 2 0.0 16.440000000000005 1.4720000000000002 11.444000000000003 # H
374 1 1 0.0 16.491000000000003 1.4400000000000004 10.364000000000003 # C
375 1 2 0.0 17.443000000000005 5.444000000000001 7.9110000000000005 # H
376 1 2 0.0 17.443000000000005 5.444000000000001 10.107000000000001 # H
377 1 2 0.0 5.0520000000000005 -4.747000000000001 7.862000000000002 # H
378 1 2 0.0 17.417000000000005 3.3420000000000005 7.8610000000000015 # H
379 1 1 0.0 8.867000000000003 -1.5320000000000003 9.797000000000002 # C
380 1 2 0.0 8.861000000000002 -3.0220000000000007 11.389000000000001 # H
381 1 1 0.0 13.975000000000003 2.9010000000000002 9.795000000000002 # C
382 1 2 0.0 7.588000000000001 -4.753000000000001 10.156000000000002 # H
383 1 1 0.0 6.335000000000001 7.350000000000001 9.802000000000001 # C
384 1 1 0.0 6.328000000000002 -1.5270000000000001 9.797000000000002 # C
385 1 1 0.0 15.264000000000001 5.130000000000001 9.797000000000002 # C
386 1 2 0.0 6.333000000000002 5.852000000000001 11.379000000000001 # H
387 1 2 0.0 17.430000000000003 0.9560000000000002 7.8900000000000015 # H
388 1 1 0.0 16.491000000000003 1.4400000000000004 7.655000000000001 # C
389 1 2 0.0 17.430000000000003 0.9560000000000002 10.129000000000001 # H
390 1 1 0.0 5.061000000000001 -0.7820000000000001 7.716000000000002 # C
391 1 1 0.0 5.061000000000001 -0.7820000000000001 10.302000000000003 # C
392 1 2 0.0 5.0600000000000005 -0.7800000000000001 11.384000000000004 # H
393 1 1 0.0 12.695000000000002 3.638000000000001 7.719000000000001 # C
394 1 1 0.0 13.975000000000003 2.9010000000000002 8.223000000000003 # C
395 1 1 0.0 12.694000000000003 5.115000000000001 8.227000000000002 # C
396 1 2 0.0 10.126000000000001 -4.757000000000001 10.156000000000002 # H
397 1 1 0.0 12.695000000000002 3.638000000000001 10.299000000000001 # C
398 1 2 0.0 12.690000000000003 3.6370000000000005 11.381000000000002 # H
399 1 1 0.0 15.264000000000001 5.130000000000001 8.222000000000001 # C
400 1 2 0.0 6.324000000000001 -3.0170000000000003 11.389000000000001 # H
401 1 1 0.0 15.257000000000003 3.6470000000000007 7.716000000000002 # C
402 1 1 0.0 10.144000000000002 5.115000000000001 8.226000000000003 # C
403 1 1 0.0 10.144000000000002 5.115000000000001 9.792000000000002 # C
404 1 2 0.0 15.256000000000002 3.648000000000001 11.384000000000004 # H
405 1 1 0.0 10.145000000000001 3.6390000000000007 7.719000000000001 # C
406 1 2 0.0 10.142000000000001 3.638000000000001 11.382000000000003 # H
407 1 2 0.0 11.415000000000003 1.4200000000000004 11.381000000000002 # H
408 1 1 0.0 7.603000000000001 5.120000000000001 8.226000000000003 # C
409 1 1 0.0 7.603000000000001 5.120000000000001 9.792000000000002 # C