LAMMPS data file -- atom_style full -- generated by chemfiles
996 atoms
1461 bonds
3852 angles
9963 dihedrals
2568 impropers
2 atom types
2 bond types
3 angle types
3 dihedral types
3 improper types
-39 39 xlo xhi
-39 39 ylo yhi
-39 39 zlo zhi

# Pair Coeffs
# 1 C
# 2 H

# Bond Coeffs
# 1 C-C
# 2 C-H

# Angle Coeffs
# 1 C-C-C
# 2 C-C-H
# 3 H-C-H

# Dihedrals Coeffs
# 1 C-C-C-C
# 2 C-C-C-H
# 3 H-C-C-H

# Impropers Coeffs
# 1 C-C-C-C
# 2 C-C-C-H
# 3 C-C-H-H

Masses

1 12.011 # C
2 1.008 # H

Atoms # full

1 1 1 0.0 0.0 0.7290000000000001 8.237000000000002 # C
2 1 1 0.0 -1.2620000000000002 1.4580000000000002 7.722000000000002 # C
3 1 1 0.0 1.2620000000000002 1.4580000000000002 7.722000000000002 # C
4 1 1 0.0 0.0 0.7290000000000001 9.781000000000002 # C
5 1 1 0.0 -1.2620000000000002 1.4580000000000002 10.297000000000002 # C
6 1 1 0.0 1.2620000000000002 1.4580000000000002 10.297000000000002 # C
7 1 1 0.0 -5.048000000000001 0.7290000000000001 8.237000000000002 # C
8 1 1 0.0 -6.310000000000001 1.4580000000000002 7.722000000000002 # C
9 1 1 0.0 -3.786000000000001 1.4580000000000002 7.722000000000002 # C
10 1 1 0.0 -5.048000000000001 0.7290000000000001 9.781000000000002 # C
11 1 1 0.0 3.786000000000001 7.290000000000002 9.781000000000002 # C
12 1 1 0.0 2.5240000000000005 8.019000000000002 10.297000000000002 # C
13 1 1 0.0 3.786000000000001 5.832000000000001 7.722000000000002 # C
14 1 1 0.0 3.786000000000001 7.290000000000002 8.237000000000002 # C
15 1 1 0.0 -3.786000000000001 2.9160000000000004 8.237000000000002 # C
16 1 1 0.0 -3.786000000000001 2.9160000000000004 9.781000000000002 # C
17 1 1 0.0 -5.048000000000001 3.645000000000001 10.297000000000002 # C
18 1 1 0.0 -2.5240000000000005 3.645000000000001 10.297000000000002 # C
19 1 1 0.0 -3.786000000000001 1.4580000000000002 10.297000000000002 # C
20 1 2 0.0 -9.717000000000002 0.9480000000000002 8.083000000000002 # H
21 1 1 0.0 -8.834000000000001 1.4580000000000002 7.722000000000002 # C
22 1 2 0.0 -9.717000000000002 0.9480000000000002 9.936000000000002 # H
23 1 1 0.0 -8.834000000000001 1.4580000000000002 10.297000000000002 # C
24 1 1 0.0 -7.572000000000002 5.103000000000001 8.237000000000002 # C
25 1 1 0.0 -8.834000000000001 5.832000000000001 7.722000000000002 # C
26 1 1 0.0 -6.310000000000001 5.832000000000001 7.722000000000002 # C
27 1 1 0.0 -7.572000000000002 5.103000000000001 9.781000000000002 # C
28 1 1 0.0 -8.834000000000001 5.832000000000001 10.297000000000002 # C
29 1 1 0.0 -6.310000000000001 5.832000000000001 10.297000000000002 # C
30 1 1 0.0 -7.572000000000002 3.645000000000001 7.722000000000002 # C
31 1 1 0.0 -6.310000000000001 2.9160000000000004 8.237000000000002 # C
32 1 1 0.0 -8.834000000000001 2.9160000000000004 8.237000000000002 # C
33 1 1 0.0 -7.572000000000002 3.645000000000001 10.297000000000002 # C
34 1 1 0.0 1.2620000000000002 7.290000000000002 8.237000000000002 # C
35 1 1 0.0 1.2620000000000002 7.290000000000002 9.781000000000002 # C
36 1 1 0.0 3.786000000000001 -1.4580000000000002 8.237000000000002 # C
37 1 1 0.0 3.786000000000001 -1.4580000000000002 9.781000000000002 # C
38 1 1 0.0 2.5240000000000005 -0.7290000000000001 10.297000000000002 # C
39 1 2 0.0 4.6690000000000005 -0.9480000000000002 10.142000000000001 # H
40 1 1 0.0 -7.572000000000002 0.7290000000000001 9.781000000000002 # C
41 1 1 0.0 -6.310000000000001 1.4580000000000002 10.297000000000002 # C
42 1 1 0.0 3.786000000000001 -2.9160000000000004 7.722000000000002 # C
43 1 1 0.0 3.786000000000001 -2.9160000000000004 10.297000000000002 # C
44 1 1 0.0 -7.572000000000002 0.7290000000000001 8.237000000000002 # C
45 1 1 0.0 0.0 8.019000000000002 10.297000000000002 # C
46 1 2 0.0 4.670000000000001 -0.9480000000000002 7.877000000000001 # H
47 1 2 0.0 0.0 -4.665000000000001 7.877000000000001 # H
48 1 1 0.0 0.0 -3.645000000000001 8.237000000000002 # C
49 1 1 0.0 1.2620000000000002 5.832000000000001 7.722000000000002 # C
50 1 1 0.0 1.2620000000000002 5.832000000000001 10.297000000000002 # C
51 1 1 0.0 -6.310000000000001 2.9160000000000004 9.781000000000002 # C
52 1 2 0.0 2.5240000000000005 9.039000000000001 9.936000000000002 # H
53 1 2 0.0 4.6690000000000005 -3.426000000000001 8.083000000000002 # H
54 1 2 0.0 4.6690000000000005 -3.426000000000001 9.936000000000002 # H
55 1 1 0.0 -2.5240000000000005 8.019000000000002 7.722000000000002 # C
56 1 1 0.0 -1.2620000000000002 7.290000000000002 8.237000000000002 # C
57 1 1 0.0 -3.786000000000001 7.290000000000002 8.237000000000002 # C
58 1 2 0.0 -2.5240000000000005 9.039000000000001 8.083000000000002 # H
59 1 1 0.0 -2.5240000000000005 8.019000000000002 10.297000000000002 # C
60 1 2 0.0 -2.5240000000000005 9.039000000000001 9.936000000000002 # H
61 1 2 0.0 -9.717000000000002 5.3210000000000015 8.083000000000002 # H
62 1 2 0.0 -9.717000000000002 5.3210000000000015 9.936000000000002 # H
63 1 2 0.0 -9.718000000000002 3.426000000000001 7.877000000000001 # H
64 1 1 0.0 1.2620000000000002 -1.4580000000000002 8.237000000000002 # C
65 1 1 0.0 1.2620000000000002 -1.4580000000000002 9.781000000000002 # C
66 1 1 0.0 0.0 -0.7290000000000001 10.297000000000002 # C
67 1 1 0.0 1.2620000000000002 -2.9160000000000004 7.722000000000002 # C
68 1 1 0.0 1.2620000000000002 -2.9160000000000004 10.297000000000002 # C
69 1 1 0.0 -1.2620000000000002 7.290000000000002 9.781000000000002 # C
70 1 1 0.0 2.5240000000000005 -0.7290000000000001 7.722000000000002 # C
71 1 1 0.0 2.5240000000000005 0.7290000000000001 8.237000000000002 # C
72 1 1 0.0 2.5240000000000005 0.7290000000000001 9.781000000000002 # C
73 1 1 0.0 3.786000000000001 5.832000000000001 10.297000000000002 # C
74 1 1 0.0 -1.2620000000000002 5.832000000000001 7.722000000000002 # C
75 1 1 0.0 -1.2620000000000002 5.832000000000001 10.297000000000002 # C
76 1 1 0.0 -8.834000000000001 2.9160000000000004 9.781000000000002 # C
77 1 2 0.0 -9.717000000000002 3.426000000000001 10.142000000000001 # H
78 1 1 0.0 -2.5240000000000005 -0.7290000000000001 7.722000000000002 # C
79 1 1 0.0 -1.2620000000000002 -1.4580000000000002 8.237000000000002 # C
80 1 1 0.0 -3.786000000000001 -1.4580000000000002 8.237000000000002 # C
81 1 1 0.0 -2.5240000000000005 0.7290000000000001 8.237000000000002 # C
82 1 1 0.0 -2.5240000000000005 -0.7290000000000001 10.297000000000002 # C
83 1 1 0.0 -2.5240000000000005 0.7290000000000001 9.781000000000002 # C
84 1 1 0.0 0.0 8.019000000000002 7.722000000000002 # C
85 1 2 0.0 0.0 9.039000000000001 8.083000000000002 # H
86 1 2 0.0 0.0 9.039000000000001 9.936000000000002 # H
87 1 1 0.0 2.5240000000000005 -3.645000000000001 8.237000000000002 # C
88 1 1 0.0 2.5240000000000005 -3.645000000000001 9.781000000000002 # C
89 1 2 0.0 2.5240000000000005 -4.665000000000001 7.877000000000001 # H
90 1 2 0.0 2.5240000000000005 -4.665000000000001 10.142000000000001 # H
91 1 1 0.0 -5.048000000000001 8.019000000000002 10.297000000000002 # C
92 1 1 0.0 -2.5240000000000005 -3.645000000000001 8.237000000000002 # C
93 1 1 0.0 -3.786000000000001 -2.9160000000000004 7.722000000000002 # C
94 1 1 0.0 -1.2620000000000002 -2.9160000000000004 7.722000000000002 # C
95 1 1 0.0 -2.5240000000000005 -3.645000000000001 9.781000000000002 # C
96 1 1 0.0 -3.786000000000001 -2.9160000000000004 10.297000000000002 # C
97 1 1 0.0 -1.2620000000000002 -2.9160000000000004 10.297000000000002 # C
98 1 1 0.0 -1.2620000000000002 2.9160000000000004 8.237000000000002 # C
99 1 1 0.0 -1.2620000000000002 2.9160000000000004 9.781000000000002 # C
100 1 2 0.0 -9.717000000000002 -3.426000000000001 9.936000000000002 # H
101 1 1 0.0 -8.834000000000001 -2.9160000000000004 10.297000000000002 # C
102 1 1 0.0 2.5240000000000005 8.019000000000002 7.722000000000002 # C
103 1 2 0.0 2.5240000000000005 9.039000000000001 8.083000000000002 # H
104 1 2 0.0 -2.5240000000000005 -4.665000000000001 7.877000000000001 # H
105 1 1 0.0 -1.2620000000000002 -1.4580000000000002 9.781000000000002 # C
106 1 1 0.0 -7.572000000000002 -3.645000000000001 8.237000000000002 # C
107 1 1 0.0 -8.834000000000001 -2.9160000000000004 7.722000000000002 # C
108 1 1 0.0 -6.310000000000001 -2.9160000000000004 7.722000000000002 # C
109 1 1 0.0 -7.572000000000002 -3.645000000000001 9.781000000000002 # C
110 1 1 0.0 -3.786000000000001 7.290000000000002 9.781000000000002 # C
111 1 1 0.0 -6.310000000000001 -2.9160000000000004 10.297000000000002 # C
112 1 1 0.0 0.0 -0.7290000000000001 7.722000000000002 # C
113 1 1 0.0 -3.786000000000001 5.832000000000001 7.722000000000002 # C
114 1 1 0.0 -3.786000000000001 5.832000000000001 10.297000000000002 # C
115 1 2 0.0 0.0 -4.665000000000001 10.142000000000001 # H
116 1 1 0.0 0.0 -3.645000000000001 9.781000000000002 # C
117 1 1 0.0 -5.048000000000001 -0.7290000000000001 7.722000000000002 # C
118 1 1 0.0 -6.310000000000001 -1.4580000000000002 8.237000000000002 # C
119 1 1 0.0 -5.048000000000001 -0.7290000000000001 10.297000000000002 # C
120 1 1 0.0 3.786000000000001 2.9160000000000004 8.237000000000002 # C
121 1 1 0.0 3.786000000000001 2.9160000000000004 9.781000000000002 # C
122 1 2 0.0 -7.572000000000002 -4.665000000000001 10.142000000000001 # H
123 1 1 0.0 -5.048000000000001 -3.645000000000001 9.781000000000002 # C
124 1 1 0.0 -5.048000000000001 8.019000000000002 7.722000000000002 # C
125 1 1 0.0 -6.310000000000001 7.290000000000002 8.237000000000002 # C
126 1 2 0.0 -5.048000000000001 9.039000000000001 8.083000000000002 # H
127 1 1 0.0 -7.572000000000002 8.019000000000002 7.722000000000002 # C
128 1 1 0.0 -8.834000000000001 7.290000000000002 8.237000000000002 # C
129 1 2 0.0 -7.572000000000002 9.039000000000001 8.083000000000002 # H
130 1 1 0.0 -7.572000000000002 8.019000000000002 10.297000000000002 # C
131 1 2 0.0 -7.572000000000002 9.039000000000001 9.936000000000002 # H
132 1 2 0.0 -5.048000000000001 9.039000000000001 9.936000000000002 # H
133 1 1 0.0 -5.048000000000001 -3.645000000000001 8.237000000000002 # C
134 1 1 0.0 2.5240000000000005 3.645000000000001 10.297000000000002 # C
135 1 1 0.0 -8.834000000000001 -1.4580000000000002 8.237000000000002 # C
136 1 1 0.0 -8.834000000000001 -1.4580000000000002 9.781000000000002 # C
137 1 1 0.0 0.0 5.103000000000001 9.781000000000002 # C
138 1 2 0.0 -5.048000000000001 -4.665000000000001 7.877000000000001 # H
139 1 1 0.0 3.786000000000001 1.4580000000000002 10.297000000000002 # C
140 1 2 0.0 -7.572000000000002 -4.665000000000001 7.877000000000001 # H
141 1 1 0.0 -3.786000000000001 -1.4580000000000002 9.781000000000002 # C
142 1 1 0.0 1.2620000000000002 2.9160000000000004 9.781000000000002 # C
143 1 2 0.0 -5.048000000000001 -4.665000000000001 10.142000000000001 # H
144 1 1 0.0 -6.310000000000001 7.290000000000002 9.781000000000002 # C
145 1 1 0.0 -6.310000000000001 -1.4580000000000002 9.781000000000002 # C
146 1 1 0.0 2.5240000000000005 5.103000000000001 9.781000000000002 # C
147 1 2 0.0 4.6690000000000005 0.9480000000000002 8.083000000000002 # H
148 1 1 0.0 3.786000000000001 1.4580000000000002 7.722000000000002 # C
149 1 2 0.0 4.6690000000000005 0.9480000000000002 9.936000000000002 # H
150 1 1 0.0 -7.572000000000002 -0.7290000000000001 7.722000000000002 # C
151 1 1 0.0 -7.572000000000002 -0.7290000000000001 10.297000000000002 # C
152 1 2 0.0 -9.717000000000002 7.801000000000002 7.877000000000001 # H
153 1 1 0.0 0.0 3.645000000000001 7.722000000000002 # C
154 1 1 0.0 1.2620000000000002 2.9160000000000004 8.237000000000002 # C
155 1 1 0.0 0.0 5.103000000000001 8.237000000000002 # C
156 1 2 0.0 -2.5240000000000005 -4.665000000000001 10.142000000000001 # H
157 1 1 0.0 0.0 3.645000000000001 10.297000000000002 # C
158 1 1 0.0 2.5240000000000005 5.103000000000001 8.237000000000002 # C
159 1 1 0.0 2.5240000000000005 3.645000000000001 7.722000000000002 # C
160 1 1 0.0 -2.5240000000000005 5.103000000000001 8.237000000000002 # C
161 1 1 0.0 -2.5240000000000005 5.103000000000001 9.781000000000002 # C
162 1 1 0.0 -8.834000000000001 7.290000000000002 9.781000000000002 # C
163 1 2 0.0 -9.717000000000002 7.801000000000002 10.142000000000001 # H
164 1 1 0.0 -2.5240000000000005 3.645000000000001 7.722000000000002 # C
165 1 2 0.0 -9.718000000000002 -0.9480000000000002 7.877000000000001 # H
166 1 2 0.0 -9.717000000000002 -3.426000000000001 8.083000000000002 # H
167 1 2 0.0 -9.717000000000002 -0.9480000000000002 10.142000000000001 # H
168 1 1 0.0 -5.048000000000001 5.103000000000001 8.237000000000002 # C
169 1 1 0.0 -5.048000000000001 5.103000000000001 9.781000000000002 # C
170 1 1 0.0 -5.048000000000001 3.645000000000001 7.722000000000002 # C
171 1 2 0.0 -1.2620000000000002 1.4580000000000002 6.6400000000000015 # H
172 1 2 0.0 1.2620000000000002 1.4580000000000002 6.6400000000000015 # H
173 1 2 0.0 -8.834000000000001 5.832000000000001 6.6400000000000015 # H
174 1 2 0.0 -6.310000000000001 1.4580000000000002 6.6400000000000015 # H
175 1 2 0.0 -3.786000000000001 1.4580000000000002 6.6400000000000015 # H
176 1 2 0.0 3.786000000000001 5.832000000000001 6.6400000000000015 # H
177 1 2 0.0 -5.048000000000001 3.645000000000001 6.6400000000000015 # H
178 1 2 0.0 -2.5240000000000005 3.645000000000001 6.6400000000000015 # H
179 1 2 0.0 -8.834000000000001 1.4580000000000002 6.6400000000000015 # H
180 1 2 0.0 -7.572000000000002 -0.7290000000000001 6.6400000000000015 # H
181 1 2 0.0 -6.310000000000001 5.832000000000001 6.6400000000000015 # H
182 1 2 0.0 -7.572000000000002 3.645000000000001 6.6400000000000015 # H
183 1 2 0.0 2.5240000000000005 -0.7290000000000001 6.6400000000000015 # H
184 1 2 0.0 1.2620000000000002 5.832000000000001 6.6400000000000015 # H
185 1 2 0.0 3.786000000000001 -2.9160000000000004 6.6400000000000015 # H
186 1 2 0.0 0.0 8.019000000000002 6.6400000000000015 # H
187 1 2 0.0 2.5240000000000005 8.019000000000002 6.6400000000000015 # H
188 1 2 0.0 -2.5240000000000005 8.019000000000002 6.6400000000000015 # H
189 1 2 0.0 -5.048000000000001 -0.7290000000000001 6.6400000000000015 # H
190 1 2 0.0 -2.5240000000000005 -0.7290000000000001 6.6400000000000015 # H
191 1 2 0.0 0.0 -0.7290000000000001 6.6400000000000015 # H
192 1 2 0.0 1.2620000000000002 -2.9160000000000004 6.6400000000000015 # H
193 1 2 0.0 -1.2620000000000002 5.832000000000001 6.6400000000000015 # H
194 1 2 0.0 0.0 3.645000000000001 6.6400000000000015 # H
195 1 2 0.0 -3.786000000000001 -2.9160000000000004 6.6400000000000015 # H
196 1 2 0.0 -1.2620000000000002 -2.9160000000000004 6.6400000000000015 # H
197 1 2 0.0 -8.834000000000001 -2.9160000000000004 6.6400000000000015 # H
198 1 2 0.0 -6.310000000000001 -2.9160000000000004 6.6400000000000015 # H
199 1 2 0.0 -5.048000000000001 8.019000000000002 6.6400000000000015 # H
200 1 2 0.0 -3.786000000000001 5.832000000000001 6.6400000000000015 # H
201 1 2 0.0 -7.572000000000002 8.019000000000002 6.6400000000000015 # H
202 1 2 0.0 2.5240000000000005 3.645000000000001 6.6400000000000015 # H
203 1 2 0.0 3.786000000000001 1.4580000000000002 6.6400000000000015 # H
204 1 1 0.0 0.009000000000000001 0.7290000000000001 12.333000000000002 # C
205 1 1 0.0 -1.2530000000000001 1.4580000000000002 11.818000000000001 # C
206 1 1 0.0 1.2710000000000001 1.4580000000000002 11.818000000000001 # C
207 1 1 0.0 0.009000000000000001 0.7290000000000001 13.877000000000002 # C
208 1 1 0.0 -1.2530000000000001 1.4580000000000002 14.393000000000004 # C
209 1 1 0.0 1.2710000000000001 1.4580000000000002 14.393000000000004 # C
210 1 1 0.0 -5.039000000000001 0.7290000000000001 12.333000000000002 # C
211 1 1 0.0 -6.301000000000001 1.4580000000000002 11.818000000000001 # C
212 1 1 0.0 -3.7770000000000006 1.4580000000000002 11.818000000000001 # C
213 1 1 0.0 -5.039000000000001 0.7290000000000001 13.877000000000002 # C
214 1 1 0.0 3.795000000000001 7.290000000000002 13.877000000000002 # C
215 1 1 0.0 2.5330000000000004 8.019000000000002 14.393000000000004 # C
216 1 1 0.0 3.795000000000001 5.832000000000001 11.818000000000001 # C
217 1 1 0.0 3.795000000000001 7.290000000000002 12.333000000000002 # C
218 1 1 0.0 -3.7770000000000006 2.9160000000000004 12.333000000000002 # C
219 1 1 0.0 -3.7770000000000006 2.9160000000000004 13.877000000000002 # C
220 1 1 0.0 -5.039000000000001 3.645000000000001 14.393000000000004 # C
221 1 1 0.0 -2.5150000000000006 3.645000000000001 14.393000000000004 # C
222 1 1 0.0 -3.7770000000000006 1.4580000000000002 14.393000000000004 # C
223 1 2 0.0 -9.708000000000002 0.9480000000000002 12.179000000000004 # H
224 1 1 0.0 -8.825000000000001 1.4580000000000002 11.818000000000001 # C
225 1 2 0.0 -9.708000000000002 0.9480000000000002 14.032000000000004 # H
226 1 1 0.0 -8.825000000000001 1.4580000000000002 14.393000000000004 # C
227 1 1 0.0 -7.563000000000001 5.103000000000001 12.333000000000002 # C
228 1 1 0.0 -8.825000000000001 5.832000000000001 11.818000000000001 # C
229 1 1 0.0 -6.301000000000001 5.832000000000001 11.818000000000001 # C
230 1 1 0.0 -7.563000000000001 5.103000000000001 13.877000000000002 # C
231 1 1 0.0 -8.825000000000001 5.832000000000001 14.393000000000004 # C
232 1 1 0.0 -6.301000000000001 5.832000000000001 14.393000000000004 # C
233 1 1 0.0 -7.563000000000001 3.645000000000001 11.818000000000001 # C
234 1 1 0.0 -6.301000000000001 2.9160000000000004 12.333000000000002 # C
235 1 1 0.0 -8.825000000000001 2.9160000000000004 12.333000000000002 # C
236 1 1 0.0 -7.563000000000001 3.645000000000001 14.393000000000004 # C
237 1 1 0.0 1.2710000000000001 7.290000000000002 12.333000000000002 # C
238 1 1 0.0 1.2710000000000001 7.290000000000002 13.877000000000002 # C
239 1 1 0.0 3.795000000000001 -1.4580000000000002 12.333000000000002 # C
240 1 1 0.0 3.795000000000001 -1.4580000000000002 13.877000000000002 # C
241 1 1 0.0 2.5330000000000004 -0.7290000000000001 14.393000000000004 # C
242 1 2 0.0 4.678000000000001 -0.9480000000000002 14.238000000000003 # H
243 1 1 0.0 -7.563000000000001 0.7290000000000001 13.877000000000002 # C
244 1 1 0.0 -6.301000000000001 1.4580000000000002 14.393000000000004 # C
245 1 1 0.0 3.795000000000001 -2.9160000000000004 11.818000000000001 # C
246 1 1 0.0 3.795000000000001 -2.9160000000000004 14.393000000000004 # C
247 1 1 0.0 -7.563000000000001 0.7290000000000001 12.333000000000002 # C
248 1 1 0.0 0.009000000000000001 8.019000000000002 14.393000000000004 # C
249 1 2 0.0 4.679000000000001 -0.9480000000000002 11.973000000000004 # H
250 1 2 0.0 0.009000000000000001 -4.665000000000001 11.973000000000004 # H
251 1 1 0.0 0.009000000000000001 -3.645000000000001 12.333000000000002 # C
252 1 1 0.0 1.2710000000000001 5.832000000000001 11.818000000000001 # C
253 1 1 0.0 1.2710000000000001 5.832000000000001 14.393000000000004 # C
254 1 1 0.0 -6.301000000000001 2.9160000000000004 13.877000000000002 # C
255 1 2 0.0 2.5330000000000004 9.039000000000001 14.032000000000004 # H
256 1 2 0.0 4.678000000000001 -3.426000000000001 12.179000000000004 # H
257 1 2 0.0 4.678000000000001 -3.426000000000001 14.032000000000004 # H
258 1 1 0.0 -2.5150000000000006 8.019000000000002 11.818000000000001 # C
259 1 1 0.0 -1.2530000000000001 7.290000000000002 12.333000000000002 # C
260 1 1 0.0 -3.7770000000000006 7.290000000000002 12.333000000000002 # C
261 1 2 0.0 -2.5150000000000006 9.039000000000001 12.179000000000004 # H
262 1 1 0.0 -2.5150000000000006 8.019000000000002 14.393000000000004 # C
263 1 2 0.0 -2.5150000000000006 9.039000000000001 14.032000000000004 # H
264 1 2 0.0 -9.708000000000002 5.3210000000000015 12.179000000000004 # H
265 1 2 0.0 -9.708000000000002 5.3210000000000015 14.032000000000004 # H
266 1 2 0.0 -9.709000000000001 3.426000000000001 11.973000000000004 # H
267 1 1 0.0 1.2710000000000001 -1.4580000000000002 12.333000000000002 # C
268 1 1 0.0 1.2710000000000001 -1.4580000000000002 13.877000000000002 # C
269 1 1 0.0 0.009000000000000001 -0.7290000000000001 14.393000000000004 # C
270 1 1 0.0 1.2710000000000001 -2.9160000000000004 11.818000000000001 # C
271 1 1 0.0 1.2710000000000001 -2.9160000000000004 14.393000000000004 # C
272 1 1 0.0 -1.2530000000000001 7.290000000000002 13.877000000000002 # C
273 1 1 0.0 2.5330000000000004 -0.7290000000000001 11.818000000000001 # C
274 1 1 0.0 2.5330000000000004 0.7290000000000001 12.333000000000002 # C
275 1 1 0.0 2.5330000000000004 0.7290000000000001 13.877000000000002 # C
276 1 1 0.0 3.795000000000001 5.832000000000001 14.393000000000004 # C
277 1 1 0.0 -1.2530000000000001 5.832000000000001 11.818000000000001 # C
278 1 1 0.0 -1.2530000000000001 5.832000000000001 14.393000000000004 # C
279 1 1 0.0 -8.825000000000001 2.9160000000000004 13.877000000000002 # C
280 1 2 0.0 -9.708000000000002 3.426000000000001 14.238000000000003 # H
281 1 1 0.0 -2.5150000000000006 -0.7290000000000001 11.818000000000001 # C
282 1 1 0.0 -1.2530000000000001 -1.4580000000000002 12.333000000000002 # C
283 1 1 0.0 -3.7770000000000006 -1.4580000000000002 12.333000000000002 # C
284 1 1 0.0 -2.5150000000000006 0.7290000000000001 12.333000000000002 # C
285 1 1 0.0 -2.5150000000000006 -0.7290000000000001 14.393000000000004 # C
286 1 1 0.0 -2.5150000000000006 0.7290000000000001 13.877000000000002 # C
287 1 1 0.0 0.009000000000000001 8.019000000000002 11.818000000000001 # C
288 1 2 0.0 0.009000000000000001 9.039000000000001 12.179000000000004 # H
289 1 2 0.0 0.009000000000000001 9.039000000000001 14.032000000000004 # H
290 1 1 0.0 2.5330000000000004 -3.645000000000001 12.333000000000002 # C
291 1 1 0.0 2.5330000000000004 -3.645000000000001 13.877000000000002 # C
292 1 2 0.0 2.5330000000000004 -4.665000000000001 11.973000000000004 # H
293 1 2 0.0 2.5330000000000004 -4.665000000000001 14.238000000000003 # H
294 1 1 0.0 -5.039000000000001 8.019000000000002 14.393000000000004 # C
295 1 1 0.0 -2.5150000000000006 -3.645000000000001 12.333000000000002 # C
296 1 1 0.0 -3.7770000000000006 -2.9160000000000004 11.818000000000001 # C
297 1 1 0.0 -1.2530000000000001 -2.9160000000000004 11.818000000000001 # C
298 1 1 0.0 -2.5150000000000006 -3.645000000000001 13.877000000000002 # C
299 1 1 0.0 -3.7770000000000006 -2.9160000000000004 14.393000000000004 # C
300 1 1 0.0 -1.2530000000000001 -2.9160000000000004 14.393000000000004 # C
301 1 1 0.0 -1.2530000000000001 2.9160000000000004 12.333000000000002 # C
302 1 1 0.0 -1.2530000000000001 2.9160000000000004 13.877000000000002 # C
303 1 2 0.0 -9.708000000000002 -3.426000000000001 14.032000000000004 # H
304 1 1 0.0 -8.825000000000001 -2.9160000000000004 14.393000000000004 # C
305 1 1 0.0 2.5330000000000004 8.019000000000002 11.818000000000001 # C
306 1 2 0.0 2.5330000000000004 9.039000000000001 12.179000000000004 # H
307 1 2 0.0 -2.5150000000000006 -4.665000000000001 11.973000000000004 # H
308 1 1 0.0 -1.2530000000000001 -1.4580000000000002 13.877000000000002 # C
309 1 1 0.0 -7.563000000000001 -3.645000000000001 12.333000000000002 # C
310 1 1 0.0 -8.825000000000001 -2.9160000000000004 11.818000000000001 # C
311 1 1 0.0 -6.301000000000001 -2.9160000000000004 11.818000000000001 # C
312 1 1 0.0 -7.563000000000001 -3.645000000000001 13.877000000000002 # C
313 1 1 0.0 -3.7770000000000006 7.290000000000002 13.877000000000002 # C
314 1 1 0.0 -6.301000000000001 -2.9160000000000004 14.393000000000004 # C
315 1 1 0.0 0.009000000000000001 -0.7290000000000001 11.818000000000001 # C
316 1 1 0.0 -3.7770000000000006 5.832000000000001 11.818000000000001 # C
317 1 1 0.0 -3.7770000000000006 5.832000000000001 14.393000000000004 # C
318 1 2 0.0 0.009000000000000001 -4.665000000000001 14.238000000000003 # H
319 1 1 0.0 0.009000000000000001 -3.645000000000001 13.877000000000002 # C
320 1 1 0.0 -5.039000000000001 -0.7290000000000001 11.818000000000001 # C
321 1 1 0.0 -6.301000000000001 -1.4580000000000002 12.333000000000002 # C
322 1 1 0.0 -5.039000000000001 -0.7290000000000001 14.393000000000004 # C
323 1 1 0.0 3.795000000000001 2.9160000000000004 12.333000000000002 # C
324 1 1 0.0 3.795000000000001 2.9160000000000004 13.877000000000002 # C
325 1 2 0.0 -7.563000000000001 -4.665000000000001 14.238000000000003 # H
326 1 1 0.0 -5.039000000000001 -3.645000000000001 13.877000000000002 # C
327 1 1 0.0 -5.039000000000001 8.019000000000002 11.818000000000001 # C
328 1 1 0.0 -6.301000000000001 7.290000000000002 12.333000000000002 # C
329 1 2 0.0 -5.039000000000001 9.039000000000001 12.179000000000004 # H
330 1 1 0.0 -7.563000000000001 8.019000000000002 11.818000000000001 # C
331 1 1 0.0 -8.825000000000001 7.290000000000002 12.333000000000002 # C
332 1 2 0.0 -7.563000000000001 9.039000000000001 12.179000000000004 # H
333 1 1 0.0 -7.563000000000001 8.019000000000002 14.393000000000004 # C
334 1 2 0.0 -7.563000000000001 9.039000000000001 14.032000000000004 # H
335 1 2 0.0 -5.039000000000001 9.039000000000001 14.032000000000004 # H
336 1 1 0.0 -5.039000000000001 -3.645000000000001 12.333000000000002 # C
337 1 1 0.0 2.5330000000000004 3.645000000000001 14.393000000000004 # C
338 1 1 0.0 -8.825000000000001 -1.4580000000000002 12.333000000000002 # C
339 1 1 0.0 -8.825000000000001 -1.4580000000000002 13.877000000000002 # C
340 1 1 0.0 0.009000000000000001 5.103000000000001 13.877000000000002 # C
341 1 2 0.0 -5.039000000000001 -4.665000000000001 11.973000000000004 # H
342 1 1 0.0 3.795000000000001 1.4580000000000002 14.393000000000004 # C
343 1 2 0.0 -7.563000000000001 -4.665000000000001 11.973000000000004 # H
344 1 1 0.0 -3.7770000000000006 -1.4580000000000002 13.877000000000002 # C
345 1 1 0.0 1.2710000000000001 2.9160000000000004 13.877000000000002 # C
346 1 2 0.0 -5.039000000000001 -4.665000000000001 14.238000000000003 # H
347 1 1 0.0 -6.301000000000001 7.290000000000002 13.877000000000002 # C
348 1 1 0.0 -6.301000000000001 -1.4580000000000002 13.877000000000002 # C
349 1 1 0.0 2.5330000000000004 5.103000000000001 13.877000000000002 # C
350 1 2 0.0 4.678000000000001 0.9480000000000002 12.179000000000004 # H
351 1 1 0.0 3.795000000000001 1.4580000000000002 11.818000000000001 # C
352 1 2 0.0 4.678000000000001 0.9480000000000002 14.032000000000004 # H
353 1 1 0.0 -7.563000000000001 -0.7290000000000001 11.818000000000001 # C
354 1 1 0.0 -7.563000000000001 -0.7290000000000001 14.393000000000004 # C
355 1 2 0.0 -9.708000000000002 7.801000000000002 11.973000000000004 # H
356 1 1 0.0 0.009000000000000001 3.645000000000001 11.818000000000001 # C
357 1 1 0.0 1.2710000000000001 2.9160000000000004 12.333000000000002 # C
358 1 1 0.0 0.009000000000000001 5.103000000000001 12.333000000000002 # C
359 1 2 0.0 -2.5150000000000006 -4.665000000000001 14.238000000000003 # H
360 1 1 0.0 0.009000000000000001 3.645000000000001 14.393000000000004 # C
361 1 1 0.0 2.5330000000000004 5.103000000000001 12.333000000000002 # C
362 1 1 0.0 2.5330000000000004 3.645000000000001 11.818000000000001 # C
363 1 1 0.0 -2.5150000000000006 5.103000000000001 12.333000000000002 # C
364 1 1 0.0 -2.5150000000000006 5.103000000000001 13.877000000000002 # C
365 1 1 0.0 -8.825000000000001 7.290000000000002 13.877000000000002 # C
366 1 2 0.0 -9.708000000000002 7.801000000000002 14.238000000000003 # H
367 1 1 0.0 -2.5150000000000006 3.645000000000001 11.818000000000001 # C
368 1 2 0.0 -9.709000000000001 -0.9480000000000002 11.973000000000004 # H
369 1 2 0.0 -9.708000000000002 -3.426000000000001 12.179000000000004 # H
370 1 2 0.0 -9.708000000000002 -0.9480000000000002 14.238000000000003 # H
371 1 1 0.0 -5.039000000000001 5.103000000000001 12.333000000000002 # C
372 1 1 0.0 -5.039000000000001 5.103000000000001 13.877000000000002 # C
373 1 1 0.0 -5.039000000000001 3.645000000000001 11.818000000000001 # C
374 1 1 0.0 0.018000000000000002 0.7290000000000001 16.429000000000002 # C
375 1 1 0.0 -1.2440000000000002 1.4580000000000002 15.914000000000001 # C
376 1 1 0.0 1.2800000000000002 1.4580000000000002 15.914000000000001 # C
377 1 1 0.0 0.018000000000000002 0.7290000000000001 17.973000000000003 # C
378 1 1 0.0 -1.2440000000000002 1.4580000000000002 18.489000000000004 # C
379 1 1 0.0 1.2800000000000002 1.4580000000000002 18.489000000000004 # C
380 1 1 0.0 -5.030000000000001 0.7290000000000001 16.429000000000002 # C
381 1 1 0.0 -6.292000000000001 1.4580000000000002 15.914000000000001 # C
382 1 1 0.0 -3.7680000000000002 1.4580000000000002 15.914000000000001 # C
383 1 1 0.0 -5.030000000000001 0.7290000000000001 17.973000000000003 # C
384 1 1 0.0 3.8040000000000007 7.290000000000002 17.973000000000003 # C
385 1 1 0.0 2.5420000000000003 8.019000000000002 18.489000000000004 # C
386 1 1 0.0 3.8040000000000007 5.832000000000001 15.914000000000001 # C
387 1 1 0.0 3.8040000000000007 7.290000000000002 16.429000000000002 # C
388 1 1 0.0 -3.7680000000000002 2.9160000000000004 16.429000000000002 # C
389 1 1 0.0 -3.7680000000000002 2.9160000000000004 17.973000000000003 # C
390 1 1 0.0 -5.030000000000001 3.645000000000001 18.489000000000004 # C
391 1 1 0.0 -2.5060000000000002 3.645000000000001 18.489000000000004 # C
392 1 1 0.0 -3.7680000000000002 1.4580000000000002 18.489000000000004 # C
393 1 2 0.0 -9.699000000000002 0.9480000000000002 16.275000000000002 # H
394 1 1 0.0 -8.816000000000003 1.4580000000000002 15.914000000000001 # C
395 1 2 0.0 -9.699000000000002 0.9480000000000002 18.128000000000004 # H
396 1 1 0.0 -8.816000000000003 1.4580000000000002 18.489000000000004 # C
397 1 1 0.0 -7.554000000000001 5.103000000000001 16.429000000000002 # C
398 1 1 0.0 -8.816000000000003 5.832000000000001 15.914000000000001 # C
399 1 1 0.0 -6.292000000000001 5.832000000000001 15.914000000000001 # C
400 1 1 0.0 -7.554000000000001 5.103000000000001 17.973000000000003 # C
401 1 1 0.0 -8.816000000000003 5.832000000000001 18.489000000000004 # C
402 1 1 0.0 -6.292000000000001 5.832000000000001 18.489000000000004 # C
403 1 1 0.0 -7.554000000000001 3.645000000000001 15.914000000000001 # C
404 1 1 0.0 -6.292000000000001 2.9160000000000004 16.429000000000002 # C
405 1 1 0.0 -8.816000000000003 2.9160000000000004 16.429000000000002 # C
406 1 1 0.0 -7.554000000000001 3.645000000000001 18.489000000000004 # C
407 1 2 0.0 -7.554000000000001 3.645000000000001 19.571000000000005 # H
408 1 1 0.0 1.2800000000000002 7.290000000000002 16.429000000000002 # C
409 1 1 0.0 1.2800000000000002 7.290000000000002 17.973000000000003 # C
410 1 1 0.0 3.8040000000000007 -1.4580000000000002 16.429000000000002 # C
411 1 1 0.0 3.8040000000000007 -1.4580000000000002 17.973000000000003 # C